
     Program PWSCF v.6.0 (svn rev. 13079) starts on 16Apr2018 at 16:25:29 

     This program is part of the open-source Quantum ESPRESSO suite
     for quantum simulation of materials; please cite
         "P. Giannozzi et al., J. Phys.:Condens. Matter 21 395502 (2009);
          URL http://www.quantum-espresso.org", 
     in publications or presentations arising from this work. More details at
     http://www.quantum-espresso.org/quote

     Parallel version (MPI), running on     1 processors
     Waiting for input...
     Reading input from standard input
     Message from routine read_cards :
     DEPRECATED: no units specified in ATOMIC_POSITIONS card
     Message from routine read_cards :
     ATOMIC_POSITIONS: units set to alat

     Current dimensions of program PWSCF are:
     Max number of different atomic species (ntypx) = 10
     Max number of k-points (npk) =  40000
     Max angular momentum in pseudopotentials (lmaxx) =  3

     Subspace diagonalization in iterative solution of the eigenvalue problem:
     a serial algorithm will be used


     G-vector sticks info
     --------------------
     sticks:   dense  smooth     PW     G-vecs:    dense   smooth      PW
     Sum         151     151     61                 1243     1243     331



     bravais-lattice index     =            2
     lattice parameter (alat)  =       7.5000  a.u.
     unit-cell volume          =     105.4688 (a.u.)^3
     number of atoms/cell      =            1
     number of atomic types    =            1
     number of electrons       =         3.00
     number of Kohn-Sham states=            6
     kinetic-energy cutoff     =      20.0000  Ry
     charge density cutoff     =      80.0000  Ry
     convergence threshold     =      1.0E-06
     mixing beta               =       0.7000
     number of iterations used =            8  plain     mixing
     Exchange-correlation      =  SLA  PZ   NOGX NOGC ( 1  1  0  0 0 0)

     celldm(1)=   7.500000  celldm(2)=   0.000000  celldm(3)=   0.000000
     celldm(4)=   0.000000  celldm(5)=   0.000000  celldm(6)=   0.000000

     crystal axes: (cart. coord. in units of alat)
               a(1) = (  -0.500000   0.000000   0.500000 )  
               a(2) = (   0.000000   0.500000   0.500000 )  
               a(3) = (  -0.500000   0.500000   0.000000 )  

     reciprocal axes: (cart. coord. in units 2 pi/alat)
               b(1) = ( -1.000000 -1.000000  1.000000 )  
               b(2) = (  1.000000  1.000000  1.000000 )  
               b(3) = ( -1.000000  1.000000 -1.000000 )  


     PseudoPot. # 1 for Al read from file:
     ../../../PP/Al.pz-vbc.UPF
     MD5 check sum: f06ceae8da0fe5c02c98e3688433298c
     Pseudo is Norm-conserving, Zval =  3.0
     Generated by new atomic code, or converted to UPF format
     Using radial grid of  171 points,  2 beta functions with: 
                l(1) =   0
                l(2) =   1

     atomic species   valence    mass     pseudopotential
        Al             3.00    26.98000     Al( 1.00)

     48 Sym. Ops., with inversion, found



   Cartesian axes

     site n.     atom                  positions (alat units)
         1           Al  tau(   1) = (   0.0000000   0.0000000   0.0000000  )

     number of k points=    56  Marzari-Vanderbilt smearing, width (Ry)=  0.0500
                       cart. coord. in units 2pi/alat
        k(    1) = (   0.0000000   0.0000000   0.0000000), wk =   0.0015026
        k(    2) = (  -0.0909091   0.0909091  -0.0909091), wk =   0.0120210
        k(    3) = (  -0.1818182   0.1818182  -0.1818182), wk =   0.0120210
        k(    4) = (  -0.2727273   0.2727273  -0.2727273), wk =   0.0120210
        k(    5) = (  -0.3636364   0.3636364  -0.3636364), wk =   0.0120210
        k(    6) = (  -0.4545455   0.4545455  -0.4545455), wk =   0.0120210
        k(    7) = (   0.0000000   0.1818182   0.0000000), wk =   0.0090158
        k(    8) = (  -0.0909091   0.2727273  -0.0909091), wk =   0.0360631
        k(    9) = (  -0.1818182   0.3636364  -0.1818182), wk =   0.0360631
        k(   10) = (  -0.2727273   0.4545455  -0.2727273), wk =   0.0360631
        k(   11) = (  -0.3636364   0.5454545  -0.3636364), wk =   0.0360631
        k(   12) = (   0.5454545  -0.3636364   0.5454545), wk =   0.0360631
        k(   13) = (   0.4545455  -0.2727273   0.4545455), wk =   0.0360631
        k(   14) = (   0.3636364  -0.1818182   0.3636364), wk =   0.0360631
        k(   15) = (   0.2727273  -0.0909091   0.2727273), wk =   0.0360631
        k(   16) = (   0.1818182  -0.0000000   0.1818182), wk =   0.0180316
        k(   17) = (   0.0000000   0.3636364   0.0000000), wk =   0.0090158
        k(   18) = (  -0.0909091   0.4545455  -0.0909091), wk =   0.0360631
        k(   19) = (  -0.1818182   0.5454545  -0.1818182), wk =   0.0360631
        k(   20) = (  -0.2727273   0.6363636  -0.2727273), wk =   0.0360631
        k(   21) = (   0.6363636  -0.2727273   0.6363636), wk =   0.0360631
        k(   22) = (   0.5454545  -0.1818182   0.5454545), wk =   0.0360631
        k(   23) = (   0.4545455  -0.0909091   0.4545455), wk =   0.0360631
        k(   24) = (   0.3636364   0.0000000   0.3636364), wk =   0.0180316
        k(   25) = (   0.0000000   0.5454545   0.0000000), wk =   0.0090158
        k(   26) = (  -0.0909091   0.6363636  -0.0909091), wk =   0.0360631
        k(   27) = (  -0.1818182   0.7272727  -0.1818182), wk =   0.0360631
        k(   28) = (   0.7272727  -0.1818182   0.7272727), wk =   0.0360631
        k(   29) = (   0.6363636  -0.0909091   0.6363636), wk =   0.0360631
        k(   30) = (   0.5454545   0.0000000   0.5454545), wk =   0.0180316
        k(   31) = (   0.0000000   0.7272727   0.0000000), wk =   0.0090158
        k(   32) = (  -0.0909091   0.8181818  -0.0909091), wk =   0.0360631
        k(   33) = (   0.8181818  -0.0909091   0.8181818), wk =   0.0360631
        k(   34) = (   0.7272727   0.0000000   0.7272727), wk =   0.0180316
        k(   35) = (   0.0000000   0.9090909   0.0000000), wk =   0.0090158
        k(   36) = (   0.9090909  -0.0000000   0.9090909), wk =   0.0180316
        k(   37) = (  -0.1818182   0.3636364   0.0000000), wk =   0.0360631
        k(   38) = (  -0.2727273   0.4545455  -0.0909091), wk =   0.0721262
        k(   39) = (  -0.3636364   0.5454545  -0.1818182), wk =   0.0721262
        k(   40) = (   0.5454545  -0.3636364   0.7272727), wk =   0.0721262
        k(   41) = (  -0.1818182   0.5454545   0.0000000), wk =   0.0360631
        k(   42) = (  -0.2727273   0.6363636  -0.0909091), wk =   0.0721262
        k(   43) = (   0.6363636  -0.2727273   0.8181818), wk =   0.0721262
        k(   44) = (   0.5454545  -0.1818182   0.7272727), wk =   0.0721262
        k(   45) = (   0.4545455  -0.0909091   0.6363636), wk =   0.0721262
        k(   46) = (   0.3636364   0.0000000   0.5454545), wk =   0.0360631
        k(   47) = (  -0.1818182   0.7272727   0.0000000), wk =   0.0360631
        k(   48) = (   0.7272727  -0.1818182   0.9090909), wk =   0.0721262
        k(   49) = (   0.6363636  -0.0909091   0.8181818), wk =   0.0721262
        k(   50) = (   0.5454545   0.0000000   0.7272727), wk =   0.0360631
        k(   51) = (   0.8181818  -0.0909091   1.0000000), wk =   0.0360631
        k(   52) = (   0.7272727   0.0000000   0.9090909), wk =   0.0360631
        k(   53) = (   0.6363636  -0.2727273   1.0000000), wk =   0.0360631
        k(   54) = (   0.5454545  -0.1818182   0.9090909), wk =   0.0721262
        k(   55) = (   0.6363636  -0.0909091   1.0000000), wk =   0.0360631
        k(   56) = (   0.5454545   0.0000000   0.9090909), wk =   0.0360631

     Dense  grid:     1243 G-vectors     FFT dimensions: (  15,  15,  15)

     Estimated max dynamical RAM per process >       1.65Mb

     Initial potential from superposition of free atoms

     starting charge    2.99794, renormalised to    3.00000
     Starting wfc are    4 randomized atomic wfcs +    2 random wfc

     total cpu time spent up to now is        0.1 secs

     per-process dynamical memory:     5.5 Mb

     Self-consistent Calculation

     iteration #  1     ecut=    20.00 Ry     beta=0.70
     Davidson diagonalization with overlap
     ethr =  1.00E-02,  avg # of iterations =  4.4

     Threshold (ethr) on eigenvalues was too large:
     Diagonalizing with lowered threshold

     Davidson diagonalization with overlap
     ethr =  1.92E-04,  avg # of iterations =  1.4

     total cpu time spent up to now is        0.4 secs

     total energy              =      -4.18979878 Ry
     Harris-Foulkes estimate   =      -4.19056382 Ry
     estimated scf accuracy    <       0.00574197 Ry

     iteration #  2     ecut=    20.00 Ry     beta=0.70
     Davidson diagonalization with overlap
     ethr =  1.91E-04,  avg # of iterations =  1.0

     total cpu time spent up to now is        0.4 secs

     total energy              =      -4.18980020 Ry
     Harris-Foulkes estimate   =      -4.18982326 Ry
     estimated scf accuracy    <       0.00044460 Ry

     iteration #  3     ecut=    20.00 Ry     beta=0.70
     Davidson diagonalization with overlap
     ethr =  1.48E-05,  avg # of iterations =  1.7

     total cpu time spent up to now is        0.5 secs

     End of self-consistent calculation

          k = 0.0000 0.0000 0.0000 (   169 PWs)   bands (ev):

    -3.1928  21.1684  21.1684  22.5366  22.5366  22.5366

          k =-0.0909 0.0909-0.0909 (   168 PWs)   bands (ev):

    -2.9573  18.1368  20.4793  20.4793  23.2848  23.5755

          k =-0.1818 0.1818-0.1818 (   159 PWs)   bands (ev):

    -2.2542  14.4198  19.7264  19.7264  23.1032  24.4669

          k =-0.2727 0.2727-0.2727 (   153 PWs)   bands (ev):

    -1.0936  10.9352  19.3116  19.3116  22.9150  22.9230

          k =-0.3636 0.3636-0.3636 (   153 PWs)   bands (ev):

     0.5087   7.7722  19.2680  19.2680  21.4403  21.4406

          k =-0.4545 0.4545-0.4545 (   162 PWs)   bands (ev):

     2.5298   4.9677  19.6039  19.6039  20.3314  20.3319

          k = 0.0000 0.1818 0.0000 (   165 PWs)   bands (ev):

    -2.8789  19.1838  19.1838  19.4603  21.9231  24.9863

          k =-0.0909 0.2727-0.0909 (   160 PWs)   bands (ev):

    -2.3320  15.7597  18.2443  19.6139  22.2564  22.9827

          k =-0.1818 0.3636-0.1818 (   157 PWs)   bands (ev):

    -1.3246  12.2263  17.6831  19.2811  20.6133  24.4206

          k =-0.2727 0.4545-0.2727 (   154 PWs)   bands (ev):

     0.1296   8.9691  17.5036  18.8940  19.2309  23.9928

          k =-0.3636 0.5455-0.3636 (   157 PWs)   bands (ev):

     2.0101   6.0512  17.6720  17.7073  19.4310  22.7712

          k = 0.5455-0.3636 0.5455 (   162 PWs)   bands (ev):

     3.4783   4.3223  16.8038  18.2967  20.0651  21.9215

          k = 0.4545-0.2727 0.4545 (   157 PWs)   bands (ev):

     1.3373   6.9817  16.3357  19.2728  21.0931  21.4591

          k = 0.3636-0.1818 0.3636 (   156 PWs)   bands (ev):

    -0.4037  10.0119  16.2717  20.6004  21.4084  22.4911

          k = 0.2727-0.0909 0.2727 (   159 PWs)   bands (ev):

    -1.7108  13.3441  16.6294  21.5409  22.4021  24.0846

          k = 0.1818-0.0000 0.1818 (   159 PWs)   bands (ev):

    -2.5660  16.5967  17.6955  21.7788  22.8330  23.9586

          k = 0.0000 0.3636 0.0000 (   161 PWs)   bands (ev):

    -1.9431  17.1548  17.1548  17.1845  20.1781  20.6276

          k =-0.0909 0.4545-0.0909 (   158 PWs)   bands (ev):

    -1.0932  13.8309  16.4568  17.6985  18.0877  21.1414

          k =-0.1818 0.5455-0.1818 (   157 PWs)   bands (ev):

     0.2055  10.5449  16.1071  16.1446  17.8470  23.2670

          k =-0.2727 0.6364-0.2727 (   162 PWs)   bands (ev):

     1.9346   7.5437  14.6882  16.2156  18.0067  25.6154

          k = 0.6364-0.2727 0.6364 (   160 PWs)   bands (ev):

     4.0538   4.9102  13.6708  16.6731  18.5456  24.6520

          k = 0.5455-0.1818 0.5455 (   159 PWs)   bands (ev):

     2.6038   6.6055  13.0760  17.5168  19.4853  24.0623

          k = 0.4545-0.0909 0.4545 (   160 PWs)   bands (ev):

     0.7352   9.4380  12.9508  18.7487  20.8078  23.8429

          k = 0.3636 0.0000 0.3636 (   154 PWs)   bands (ev):

    -0.7095  12.1271  13.7252  20.3563  22.4611  23.6029

          k = 0.0000 0.5455 0.0000 (   161 PWs)   bands (ev):

    -0.4032  15.3809  15.5665  15.6251  15.6251  19.3038

          k =-0.0909 0.6364-0.0909 (   159 PWs)   bands (ev):

     0.7352  12.4140  13.5923  15.1828  16.4368  19.9764

          k =-0.1818 0.7273-0.1818 (   160 PWs)   bands (ev):

     2.3046   9.4024  12.0069  15.1235  16.7173  22.3492

          k = 0.7273-0.1818 0.7273 (   161 PWs)   bands (ev):

     4.2732   6.6833  10.8387  15.4482  17.1816  25.3226

          k = 0.6364-0.0909 0.6364 (   164 PWs)   bands (ev):

     4.2861   6.6136  10.1470  16.1572  18.0211  27.0803

          k = 0.5455 0.0000 0.5455 (   162 PWs)   bands (ev):

     2.3072   8.7746  10.4087  17.2570  19.2467  26.9004

          k = 0.0000 0.7273 0.0000 (   162 PWs)   bands (ev):

     1.7089  11.4002  14.1599  14.6110  14.6110  18.2961

          k =-0.0909 0.8182-0.0909 (   162 PWs)   bands (ev):

     3.1088   9.6367  11.6246  14.4224  15.5701  19.2240

          k = 0.8182-0.0909 0.8182 (   164 PWs)   bands (ev):

     4.8807   8.2462   9.0032  14.6156  16.1341  21.8661

          k = 0.7273 0.0000 0.7273 (   168 PWs)   bands (ev):

     6.3344   6.5568   8.1076  15.1915  16.8962  25.1198

          k = 0.0000 0.9091 0.0000 (   162 PWs)   bands (ev):

     4.3083   7.7780  13.5459  14.1055  14.1055  17.7586

          k = 0.9091-0.0000 0.9091 (   154 PWs)   bands (ev):

     5.4578   6.7883  11.3346  14.1715  15.2794  18.9655

          k =-0.1818 0.3636 0.0000 (   162 PWs)   bands (ev):

    -1.6333  14.3692  15.7241  20.3952  20.4820  22.3528

          k =-0.2727 0.4545-0.0909 (   155 PWs)   bands (ev):

    -0.4799  11.3973  14.8072  18.4886  20.7435  23.8340

          k =-0.3636 0.5455-0.1818 (   158 PWs)   bands (ev):

     1.1117   8.3146  14.6779  16.9545  20.8132  23.1342

          k = 0.5455-0.3636 0.7273 (   162 PWs)   bands (ev):

     3.1187   5.5435  14.9560  15.8544  21.1624  22.0562

          k =-0.1818 0.5455 0.0000 (   158 PWs)   bands (ev):

    -0.0983  12.6880  14.1127  15.9299  18.8838  21.1040

          k =-0.2727 0.6364-0.0909 (   155 PWs)   bands (ev):

     1.3369   9.9888  13.3479  14.3087  19.4829  22.9171

          k = 0.6364-0.2727 0.8182 (   161 PWs)   bands (ev):

     3.1902   7.1723  12.7426  13.7553  19.8593  24.7665

          k = 0.5455-0.1818 0.7273 (   162 PWs)   bands (ev):

     4.6296   5.4774  11.9371  14.2804  20.5265  24.0616

          k = 0.4545-0.0909 0.6364 (   161 PWs)   bands (ev):

     2.5290   8.0259  11.5491  15.2809  21.5410  23.5233

          k = 0.3636 0.0000 0.5455 (   156 PWs)   bands (ev):

     0.8108  10.4477  12.0829  16.6935  22.7866  22.8245

          k =-0.1818 0.7273 0.0000 (   158 PWs)   bands (ev):

     2.0074  11.5645  11.6147  13.2137  17.7836  20.1708

          k = 0.7273-0.1818 0.9091 (   162 PWs)   bands (ev):

     3.6938   9.1042  10.2617  12.7316  18.6758  22.2414

          k = 0.6364-0.0909 0.8182 (   157 PWs)   bands (ev):

     5.7167   6.6046   9.2812  13.1271  19.3387  25.2409

          k = 0.5455 0.0000 0.7273 (   162 PWs)   bands (ev):

     4.3580   7.6638   9.2415  13.9949  20.2809  26.2063

          k = 0.8182-0.0909 1.0000 (   161 PWs)   bands (ev):

     4.5952   8.0596  11.0021  12.6188  17.2300  19.6752

          k = 0.7273 0.0000 0.9091 (   160 PWs)   bands (ev):

     6.0066   7.3499   8.9314  12.4370  18.4029  22.0050

          k = 0.6364-0.2727 1.0000 (   159 PWs)   bands (ev):

     2.8960   9.3310  10.8758  12.7139  21.7340  23.2759

          k = 0.5455-0.1818 0.9091 (   159 PWs)   bands (ev):

     4.8510   7.1758  10.5422  11.6437  22.6834  23.6414

          k = 0.6364-0.0909 1.0000 (   160 PWs)   bands (ev):

     5.4503   8.7734   8.8282  10.6240  21.1882  22.9661

          k = 0.5455 0.0000 0.9091 (   158 PWs)   bands (ev):

     6.8433   7.1103   8.5782  10.6080  22.4839  25.3404

     the Fermi energy is     8.3119 ev

!    total energy              =      -4.18980324 Ry
     Harris-Foulkes estimate   =      -4.18980313 Ry
     estimated scf accuracy    <       0.00000030 Ry

     The total energy is the sum of the following terms:

     one-electron contribution =       2.93678449 Ry
     hartree contribution      =       0.00979291 Ry
     xc contribution           =      -1.63472205 Ry
     ewald contribution        =      -5.50183460 Ry
     smearing contrib. (-TS)   =       0.00017601 Ry

     convergence has been achieved in   3 iterations

     Forces acting on atoms (Ry/au):

     atom    1 type  1   force =     0.00000000    0.00000000    0.00000000

     Total force =     0.000000     Total SCF correction =     0.000000


     entering subroutine stress ...

          total   stress  (Ry/bohr**3)                   (kbar)     P=   -8.46
  -0.00005749  -0.00000000  -0.00000000         -8.46     -0.00     -0.00
  -0.00000000  -0.00005749   0.00000000         -0.00     -8.46      0.00
  -0.00000000   0.00000000  -0.00005749         -0.00      0.00     -8.46


     Writing output data file aluminium.save

     init_run     :      0.05s CPU      0.05s WALL (       1 calls)
     electrons    :      0.40s CPU      0.47s WALL (       1 calls)
     forces       :      0.00s CPU      0.01s WALL (       1 calls)
     stress       :      0.04s CPU      0.04s WALL (       1 calls)

     Called by init_run:
     wfcinit      :      0.04s CPU      0.04s WALL (       1 calls)
     potinit      :      0.00s CPU      0.00s WALL (       1 calls)

     Called by electrons:
     c_bands      :      0.35s CPU      0.40s WALL (       4 calls)
     sum_band     :      0.04s CPU      0.06s WALL (       4 calls)
     v_of_rho     :      0.00s CPU      0.00s WALL (       4 calls)
     mix_rho      :      0.00s CPU      0.00s WALL (       4 calls)

     Called by c_bands:
     init_us_2    :      0.02s CPU      0.02s WALL (     616 calls)
     cegterg      :      0.34s CPU      0.39s WALL (     224 calls)

     Called by sum_band:

     Called by *egterg:
     h_psi        :      0.28s CPU      0.28s WALL (     762 calls)
     g_psi        :      0.00s CPU      0.00s WALL (     482 calls)
     cdiaghg      :      0.03s CPU      0.05s WALL (     650 calls)

     Called by h_psi:
     h_psi:pot    :      0.28s CPU      0.27s WALL (     762 calls)
     h_psi:calbec :      0.00s CPU      0.01s WALL (     762 calls)
     vloc_psi     :      0.24s CPU      0.25s WALL (     762 calls)
     add_vuspsi   :      0.03s CPU      0.01s WALL (     762 calls)

     General routines
     calbec       :      0.00s CPU      0.01s WALL (    1042 calls)
     fft          :      0.00s CPU      0.00s WALL (      22 calls)
     fftw         :      0.23s CPU      0.24s WALL (    8946 calls)
     davcio       :      0.00s CPU      0.00s WALL (      56 calls)

     Parallel routines
     fft_scatter  :      0.04s CPU      0.04s WALL (    8968 calls)

     PWSCF        :     0.64s CPU         0.71s WALL


   This run was terminated on:  16:25:29  16Apr2018            

=------------------------------------------------------------------------------=
   JOB DONE.
=------------------------------------------------------------------------------=
