
     Program PWSCF v.6.0 (svn rev. 13079) starts on 16Apr2018 at 16: 0:20 

     This program is part of the open-source Quantum ESPRESSO suite
     for quantum simulation of materials; please cite
         "P. Giannozzi et al., J. Phys.:Condens. Matter 21 395502 (2009);
          URL http://www.quantum-espresso.org", 
     in publications or presentations arising from this work. More details at
     http://www.quantum-espresso.org/quote

     Parallel version (MPI), running on     1 processors
     Waiting for input...
     Reading input from standard input

     Current dimensions of program PWSCF are:
     Max number of different atomic species (ntypx) = 10
     Max number of k-points (npk) =  40000
     Max angular momentum in pseudopotentials (lmaxx) =  3

     Subspace diagonalization in iterative solution of the eigenvalue problem:
     a serial algorithm will be used


     G-vector sticks info
     --------------------
     sticks:   dense  smooth     PW     G-vecs:    dense   smooth      PW
     Sum         139     139     55                 1067     1067     259



     bravais-lattice index     =            2
     lattice parameter (alat)  =      10.2000  a.u.
     unit-cell volume          =     265.3020 (a.u.)^3
     number of atoms/cell      =            2
     number of atomic types    =            1
     number of electrons       =         8.00
     number of Kohn-Sham states=            4
     kinetic-energy cutoff     =       9.6090  Ry
     charge density cutoff     =      38.4360  Ry
     convergence threshold     =      1.0E-08
     mixing beta               =       0.7000
     number of iterations used =            8  plain     mixing
     Exchange-correlation      =  SLA  PZ   NOGX NOGC ( 1  1  0  0 0 0)

     celldm(1)=  10.200000  celldm(2)=   0.000000  celldm(3)=   0.000000
     celldm(4)=   0.000000  celldm(5)=   0.000000  celldm(6)=   0.000000

     crystal axes: (cart. coord. in units of alat)
               a(1) = (  -0.500000   0.000000   0.500000 )  
               a(2) = (   0.000000   0.500000   0.500000 )  
               a(3) = (  -0.500000   0.500000   0.000000 )  

     reciprocal axes: (cart. coord. in units 2 pi/alat)
               b(1) = ( -1.000000 -1.000000  1.000000 )  
               b(2) = (  1.000000  1.000000  1.000000 )  
               b(3) = ( -1.000000  1.000000 -1.000000 )  


     PseudoPot. # 1 for Si read from file:
     ../../../PP/Si.pz-vbc.UPF
     MD5 check sum: 6dfa03ddd5817404712e03e4d12deb78
     Pseudo is Norm-conserving, Zval =  4.0
     Generated by new atomic code, or converted to UPF format
     Using radial grid of  431 points,  2 beta functions with: 
                l(1) =   0
                l(2) =   1

     atomic species   valence    mass     pseudopotential
        Si             4.00    28.08600     Si( 1.00)

     24 Sym. Ops. (no inversion) found
          (note: 24 additional sym.ops. were found but ignored
           their fractional translations are incommensurate with FFT grid)


   Cartesian axes

     site n.     atom                  positions (alat units)
         1           Si  tau(   1) = (   0.0000000   0.0000000   0.0000000  )
         2           Si  tau(   2) = (  -0.2500000   0.2500000   0.2500000  )

     number of k points=    10
                       cart. coord. in units 2pi/alat
        k(    1) = (   0.0000000   0.0000000   0.0000000), wk =   0.0160000
        k(    2) = (  -0.2000000   0.2000000  -0.2000000), wk =   0.1280000
        k(    3) = (  -0.4000000   0.4000000  -0.4000000), wk =   0.1280000
        k(    4) = (   0.0000000   0.4000000   0.0000000), wk =   0.0960000
        k(    5) = (  -0.2000000   0.6000000  -0.2000000), wk =   0.3840000
        k(    6) = (   0.6000000  -0.2000000   0.6000000), wk =   0.3840000
        k(    7) = (   0.4000000   0.0000000   0.4000000), wk =   0.1920000
        k(    8) = (   0.0000000   0.8000000   0.0000000), wk =   0.0960000
        k(    9) = (   0.8000000   0.0000000   0.8000000), wk =   0.1920000
        k(   10) = (   0.6000000  -0.2000000   1.0000000), wk =   0.3840000

     Dense  grid:     1067 G-vectors     FFT dimensions: (  15,  15,  15)

     Estimated max dynamical RAM per process >       0.81Mb

     Initial potential from superposition of free atoms

     starting charge    7.99901, renormalised to    8.00000
     Starting wfc are    8 randomized atomic wfcs

     total cpu time spent up to now is        0.0 secs

     per-process dynamical memory:     4.6 Mb

     Self-consistent Calculation

     iteration #  1     ecut=     9.61 Ry     beta=0.70
     Davidson diagonalization with overlap
     ethr =  1.00E-02,  avg # of iterations =  2.0

     Threshold (ethr) on eigenvalues was too large:
     Diagonalizing with lowered threshold

     Davidson diagonalization with overlap
     ethr =  7.37E-04,  avg # of iterations =  1.0

     total cpu time spent up to now is        0.1 secs

     total energy              =     -15.75880507 Ry
     Harris-Foulkes estimate   =     -15.77673042 Ry
     estimated scf accuracy    <       0.05921259 Ry

     iteration #  2     ecut=     9.61 Ry     beta=0.70
     Davidson diagonalization with overlap
     ethr =  7.40E-04,  avg # of iterations =  1.0

     total cpu time spent up to now is        0.1 secs

     total energy              =     -15.76165223 Ry
     Harris-Foulkes estimate   =     -15.76186424 Ry
     estimated scf accuracy    <       0.00224544 Ry

     iteration #  3     ecut=     9.61 Ry     beta=0.70
     Davidson diagonalization with overlap
     ethr =  2.81E-05,  avg # of iterations =  2.0

     total cpu time spent up to now is        0.1 secs

     total energy              =     -15.76202289 Ry
     Harris-Foulkes estimate   =     -15.76203851 Ry
     estimated scf accuracy    <       0.00005545 Ry

     iteration #  4     ecut=     9.61 Ry     beta=0.70
     Davidson diagonalization with overlap
     ethr =  6.93E-07,  avg # of iterations =  2.2

     total cpu time spent up to now is        0.1 secs

     total energy              =     -15.76203430 Ry
     Harris-Foulkes estimate   =     -15.76203549 Ry
     estimated scf accuracy    <       0.00000341 Ry

     iteration #  5     ecut=     9.61 Ry     beta=0.70
     Davidson diagonalization with overlap
     ethr =  4.26E-08,  avg # of iterations =  2.2

     total cpu time spent up to now is        0.1 secs

     total energy              =     -15.76203482 Ry
     Harris-Foulkes estimate   =     -15.76203484 Ry
     estimated scf accuracy    <       0.00000004 Ry

     iteration #  6     ecut=     9.61 Ry     beta=0.70
     Davidson diagonalization with overlap
     ethr =  5.03E-10,  avg # of iterations =  2.5

     total cpu time spent up to now is        0.1 secs

     End of self-consistent calculation

          k = 0.0000 0.0000 0.0000 (   137 PWs)   bands (ev):

    -5.6015   6.3147   6.3147   6.3147

          k =-0.2000 0.2000-0.2000 (   138 PWs)   bands (ev):

    -5.0553   3.3231   5.7138   5.7138

          k =-0.4000 0.4000-0.4000 (   144 PWs)   bands (ev):

    -3.6913  -0.0094   5.1338   5.1338

          k = 0.0000 0.4000 0.0000 (   133 PWs)   bands (ev):

    -4.8562   3.8014   4.7662   4.7662

          k =-0.2000 0.6000-0.2000 (   136 PWs)   bands (ev):

    -3.7196   1.0581   3.6343   4.2354

          k = 0.6000-0.2000 0.6000 (   129 PWs)   bands (ev):

    -2.7782  -0.3691   2.8164   4.5284

          k = 0.4000 0.0000 0.4000 (   137 PWs)   bands (ev):

    -4.2113   1.9007   3.2086   5.4308

          k = 0.0000 0.8000 0.0000 (   129 PWs)   bands (ev):

    -2.8216   0.2680   3.5106   3.5106

          k = 0.8000 0.0000 0.8000 (   134 PWs)   bands (ev):

    -1.5890  -1.0145   2.0848   3.6331

          k = 0.6000-0.2000 1.0000 (   127 PWs)   bands (ev):

    -2.3557  -0.0879   2.1860   3.2000

     highest occupied level (ev):     6.3147

!    total energy              =     -15.76203483 Ry
     Harris-Foulkes estimate   =     -15.76203483 Ry
     estimated scf accuracy    <          3.6E-10 Ry

     The total energy is the sum of the following terms:

     one-electron contribution =       4.87542171 Ry
     hartree contribution      =       1.06323646 Ry
     xc contribution           =      -4.80093441 Ry
     ewald contribution        =     -16.89975859 Ry

     convergence has been achieved in   6 iterations

     Forces acting on atoms (Ry/au):

     atom    1 type  1   force =     0.00000000    0.00000000    0.00000000
     atom    2 type  1   force =    -0.00000000    0.00000000    0.00000000

     Total force =     0.000000     Total SCF correction =     0.000000


     entering subroutine stress ...

          total   stress  (Ry/bohr**3)                   (kbar)     P=  -44.61
  -0.00030328  -0.00000000   0.00000000        -44.61     -0.00      0.00
  -0.00000000  -0.00030328   0.00000000         -0.00    -44.61      0.00
   0.00000000   0.00000000  -0.00030328          0.00      0.00    -44.61


     Writing output data file silicon.save

     init_run     :      0.02s CPU      0.03s WALL (       1 calls)
     electrons    :      0.06s CPU      0.08s WALL (       1 calls)
     forces       :      0.00s CPU      0.00s WALL (       1 calls)
     stress       :      0.01s CPU      0.01s WALL (       1 calls)

     Called by init_run:
     wfcinit      :      0.00s CPU      0.01s WALL (       1 calls)
     potinit      :      0.00s CPU      0.00s WALL (       1 calls)

     Called by electrons:
     c_bands      :      0.05s CPU      0.05s WALL (       7 calls)
     sum_band     :      0.00s CPU      0.01s WALL (       7 calls)
     v_of_rho     :      0.00s CPU      0.00s WALL (       7 calls)
     mix_rho      :      0.01s CPU      0.00s WALL (       7 calls)

     Called by c_bands:
     init_us_2    :      0.00s CPU      0.01s WALL (     170 calls)
     cegterg      :      0.05s CPU      0.05s WALL (      70 calls)

     Called by sum_band:

     Called by *egterg:
     h_psi        :      0.04s CPU      0.04s WALL (     209 calls)
     g_psi        :      0.00s CPU      0.00s WALL (     129 calls)
     cdiaghg      :      0.01s CPU      0.01s WALL (     189 calls)

     Called by h_psi:
     h_psi:pot    :      0.04s CPU      0.04s WALL (     209 calls)
     h_psi:calbec :      0.00s CPU      0.00s WALL (     209 calls)
     vloc_psi     :      0.04s CPU      0.04s WALL (     209 calls)
     add_vuspsi   :      0.00s CPU      0.00s WALL (     209 calls)

     General routines
     calbec       :      0.00s CPU      0.00s WALL (     259 calls)
     fft          :      0.00s CPU      0.00s WALL (      34 calls)
     fftw         :      0.03s CPU      0.04s WALL (    1906 calls)
     davcio       :      0.00s CPU      0.00s WALL (      10 calls)

     Parallel routines
     fft_scatter  :      0.00s CPU      0.01s WALL (    1940 calls)

     PWSCF        :     0.16s CPU         0.25s WALL


   This run was terminated on:  16: 0:21  16Apr2018            

=------------------------------------------------------------------------------=
   JOB DONE.
=------------------------------------------------------------------------------=
