
     Program PWSCF v.6.0 (svn rev. 13079) starts on 16Apr2018 at 16: 0:27 

     This program is part of the open-source Quantum ESPRESSO suite
     for quantum simulation of materials; please cite
         "P. Giannozzi et al., J. Phys.:Condens. Matter 21 395502 (2009);
          URL http://www.quantum-espresso.org", 
     in publications or presentations arising from this work. More details at
     http://www.quantum-espresso.org/quote

     Parallel version (MPI), running on     1 processors
     Waiting for input...
     Reading input from standard input

     Current dimensions of program PWSCF are:
     Max number of different atomic species (ntypx) = 10
     Max number of k-points (npk) =  40000
     Max angular momentum in pseudopotentials (lmaxx) =  3

     Subspace diagonalization in iterative solution of the eigenvalue problem:
     a serial algorithm will be used


     G-vector sticks info
     --------------------
     sticks:   dense  smooth     PW     G-vecs:    dense   smooth      PW
     Sum         367     367    121                 4645     4645     893



     bravais-lattice index     =            2
     lattice parameter (alat)  =      10.2000  a.u.
     unit-cell volume          =     265.3020 (a.u.)^3
     number of atoms/cell      =            2
     number of atomic types    =            1
     number of electrons       =         8.00
     number of Kohn-Sham states=            4
     kinetic-energy cutoff     =      25.6960  Ry
     charge density cutoff     =     102.7840  Ry
     convergence threshold     =      1.0E-08
     mixing beta               =       0.7000
     number of iterations used =            8  plain     mixing
     Exchange-correlation      =  SLA  PZ   NOGX NOGC ( 1  1  0  0 0 0)

     celldm(1)=  10.200000  celldm(2)=   0.000000  celldm(3)=   0.000000
     celldm(4)=   0.000000  celldm(5)=   0.000000  celldm(6)=   0.000000

     crystal axes: (cart. coord. in units of alat)
               a(1) = (  -0.500000   0.000000   0.500000 )  
               a(2) = (   0.000000   0.500000   0.500000 )  
               a(3) = (  -0.500000   0.500000   0.000000 )  

     reciprocal axes: (cart. coord. in units 2 pi/alat)
               b(1) = ( -1.000000 -1.000000  1.000000 )  
               b(2) = (  1.000000  1.000000  1.000000 )  
               b(3) = ( -1.000000  1.000000 -1.000000 )  


     PseudoPot. # 1 for Si read from file:
     ../../../PP/Si.pz-vbc.UPF
     MD5 check sum: 6dfa03ddd5817404712e03e4d12deb78
     Pseudo is Norm-conserving, Zval =  4.0
     Generated by new atomic code, or converted to UPF format
     Using radial grid of  431 points,  2 beta functions with: 
                l(1) =   0
                l(2) =   1

     atomic species   valence    mass     pseudopotential
        Si             4.00    28.08600     Si( 1.00)

     48 Sym. Ops., with inversion, found (24 have fractional translation)



   Cartesian axes

     site n.     atom                  positions (alat units)
         1           Si  tau(   1) = (   0.0000000   0.0000000   0.0000000  )
         2           Si  tau(   2) = (  -0.2500000   0.2500000   0.2500000  )

     number of k points=    10
                       cart. coord. in units 2pi/alat
        k(    1) = (   0.0000000   0.0000000   0.0000000), wk =   0.0160000
        k(    2) = (  -0.2000000   0.2000000  -0.2000000), wk =   0.1280000
        k(    3) = (  -0.4000000   0.4000000  -0.4000000), wk =   0.1280000
        k(    4) = (   0.0000000   0.4000000   0.0000000), wk =   0.0960000
        k(    5) = (  -0.2000000   0.6000000  -0.2000000), wk =   0.3840000
        k(    6) = (   0.6000000  -0.2000000   0.6000000), wk =   0.3840000
        k(    7) = (   0.4000000   0.0000000   0.4000000), wk =   0.1920000
        k(    8) = (   0.0000000   0.8000000   0.0000000), wk =   0.0960000
        k(    9) = (   0.8000000   0.0000000   0.8000000), wk =   0.1920000
        k(   10) = (   0.6000000  -0.2000000   1.0000000), wk =   0.3840000

     Dense  grid:     4645 G-vectors     FFT dimensions: (  24,  24,  24)

     Estimated max dynamical RAM per process >       3.42Mb

     Initial potential from superposition of free atoms

     starting charge    7.99901, renormalised to    8.00000
     Starting wfc are    8 randomized atomic wfcs

     total cpu time spent up to now is        0.1 secs

     per-process dynamical memory:     6.7 Mb

     Self-consistent Calculation

     iteration #  1     ecut=    25.70 Ry     beta=0.70
     Davidson diagonalization with overlap
     ethr =  1.00E-02,  avg # of iterations =  2.0

     Threshold (ethr) on eigenvalues was too large:
     Diagonalizing with lowered threshold

     Davidson diagonalization with overlap
     ethr =  8.20E-04,  avg # of iterations =  1.0

     total cpu time spent up to now is        0.2 secs

     total energy              =     -15.84317082 Ry
     Harris-Foulkes estimate   =     -15.86511942 Ry
     estimated scf accuracy    <       0.06426906 Ry

     iteration #  2     ecut=    25.70 Ry     beta=0.70
     Davidson diagonalization with overlap
     ethr =  8.03E-04,  avg # of iterations =  1.0

     total cpu time spent up to now is        0.2 secs

     total energy              =     -15.84632209 Ry
     Harris-Foulkes estimate   =     -15.84664001 Ry
     estimated scf accuracy    <       0.00225757 Ry

     iteration #  3     ecut=    25.70 Ry     beta=0.70
     Davidson diagonalization with overlap
     ethr =  2.82E-05,  avg # of iterations =  2.0

     total cpu time spent up to now is        0.3 secs

     total energy              =     -15.84671005 Ry
     Harris-Foulkes estimate   =     -15.84673928 Ry
     estimated scf accuracy    <       0.00007140 Ry

     iteration #  4     ecut=    25.70 Ry     beta=0.70
     Davidson diagonalization with overlap
     ethr =  8.92E-07,  avg # of iterations =  2.2

     total cpu time spent up to now is        0.3 secs

     total energy              =     -15.84672776 Ry
     Harris-Foulkes estimate   =     -15.84673108 Ry
     estimated scf accuracy    <       0.00000694 Ry

     iteration #  5     ecut=    25.70 Ry     beta=0.70
     Davidson diagonalization with overlap
     ethr =  8.67E-08,  avg # of iterations =  2.2

     total cpu time spent up to now is        0.4 secs

     total energy              =     -15.84672887 Ry
     Harris-Foulkes estimate   =     -15.84672892 Ry
     estimated scf accuracy    <       0.00000011 Ry

     iteration #  6     ecut=    25.70 Ry     beta=0.70
     Davidson diagonalization with overlap
     ethr =  1.41E-09,  avg # of iterations =  2.3

     total cpu time spent up to now is        0.4 secs

     End of self-consistent calculation

          k = 0.0000 0.0000 0.0000 (   561 PWs)   bands (ev):

    -5.8083   6.2512   6.2512   6.2512

          k =-0.2000 0.2000-0.2000 (   582 PWs)   bands (ev):

    -5.2820   3.2230   5.6610   5.6610

          k =-0.4000 0.4000-0.4000 (   589 PWs)   bands (ev):

    -3.8862  -0.0955   5.1062   5.1062

          k = 0.0000 0.4000 0.0000 (   576 PWs)   bands (ev):

    -5.1013   3.6574   4.7305   4.7305

          k =-0.2000 0.6000-0.2000 (   592 PWs)   bands (ev):

    -3.9374   0.9206   3.5780   4.2139

          k = 0.6000-0.2000 0.6000 (   576 PWs)   bands (ev):

    -3.0229  -0.5143   2.7510   4.5050

          k = 0.4000 0.0000 0.4000 (   592 PWs)   bands (ev):

    -4.4347   1.7691   3.1739   5.3928

          k = 0.0000 0.8000 0.0000 (   596 PWs)   bands (ev):

    -3.0499   0.0719   3.5008   3.5008

          k = 0.8000 0.0000 0.8000 (   586 PWs)   bands (ev):

    -1.8094  -1.2127   2.0747   3.6232

          k = 0.6000-0.2000 1.0000 (   575 PWs)   bands (ev):

    -2.5934  -0.3156   2.1663   3.1791

     highest occupied level (ev):     6.2512

!    total energy              =     -15.84672890 Ry
     Harris-Foulkes estimate   =     -15.84672890 Ry
     estimated scf accuracy    <          5.5E-10 Ry

     The total energy is the sum of the following terms:

     one-electron contribution =       4.78599374 Ry
     hartree contribution      =       1.08790245 Ry
     xc contribution           =      -4.82086650 Ry
     ewald contribution        =     -16.89975858 Ry

     convergence has been achieved in   6 iterations

     Forces acting on atoms (Ry/au):

     atom    1 type  1   force =     0.00000000    0.00000000    0.00000000
     atom    2 type  1   force =     0.00000000    0.00000000    0.00000000

     Total force =     0.000000     Total SCF correction =     0.000000


     entering subroutine stress ...

          total   stress  (Ry/bohr**3)                   (kbar)     P=    2.39
   0.00001623   0.00000000  -0.00000000          2.39      0.00     -0.00
   0.00000000   0.00001623   0.00000000          0.00      2.39      0.00
  -0.00000000   0.00000000   0.00001623         -0.00      0.00      2.39


     Writing output data file silicon.save

     init_run     :      0.07s CPU      0.07s WALL (       1 calls)
     electrons    :      0.32s CPU      0.33s WALL (       1 calls)
     forces       :      0.02s CPU      0.02s WALL (       1 calls)
     stress       :      0.06s CPU      0.06s WALL (       1 calls)

     Called by init_run:
     wfcinit      :      0.04s CPU      0.04s WALL (       1 calls)
     potinit      :      0.00s CPU      0.00s WALL (       1 calls)

     Called by electrons:
     c_bands      :      0.24s CPU      0.25s WALL (       7 calls)
     sum_band     :      0.07s CPU      0.07s WALL (       7 calls)
     v_of_rho     :      0.00s CPU      0.01s WALL (       7 calls)
     mix_rho      :      0.00s CPU      0.00s WALL (       7 calls)

     Called by c_bands:
     init_us_2    :      0.02s CPU      0.02s WALL (     170 calls)
     cegterg      :      0.24s CPU      0.24s WALL (      70 calls)

     Called by sum_band:

     Called by *egterg:
     h_psi        :      0.23s CPU      0.24s WALL (     207 calls)
     g_psi        :      0.00s CPU      0.00s WALL (     127 calls)
     cdiaghg      :      0.01s CPU      0.01s WALL (     187 calls)

     Called by h_psi:
     h_psi:pot    :      0.23s CPU      0.24s WALL (     207 calls)
     h_psi:calbec :      0.01s CPU      0.01s WALL (     207 calls)
     vloc_psi     :      0.22s CPU      0.22s WALL (     207 calls)
     add_vuspsi   :      0.00s CPU      0.01s WALL (     207 calls)

     General routines
     calbec       :      0.01s CPU      0.01s WALL (     257 calls)
     fft          :      0.01s CPU      0.01s WALL (      34 calls)
     fftw         :      0.24s CPU      0.23s WALL (    1944 calls)
     davcio       :      0.00s CPU      0.01s WALL (      10 calls)

     Parallel routines
     fft_scatter  :      0.04s CPU      0.02s WALL (    1978 calls)

     PWSCF        :     0.53s CPU         0.60s WALL


   This run was terminated on:  16: 0:28  16Apr2018            

=------------------------------------------------------------------------------=
   JOB DONE.
=------------------------------------------------------------------------------=
