
     Program PWSCF v.6.3MaX starts on  8Apr2022 at 14:49:38 

     This program is part of the open-source Quantum ESPRESSO suite
     for quantum simulation of materials; please cite
         "P. Giannozzi et al., J. Phys.:Condens. Matter 21 395502 (2009);
         "P. Giannozzi et al., J. Phys.:Condens. Matter 29 465901 (2017);
          URL http://www.quantum-espresso.org", 
     in publications or presentations arising from this work. More details at
     http://www.quantum-espresso.org/quote

     Parallel version (MPI), running on     1 processors

     MPI processes distributed on     1 nodes
     Waiting for input...
     Reading input from standard input

     Current dimensions of program PWSCF are:
     Max number of different atomic species (ntypx) = 10
     Max number of k-points (npk) =  40000
     Max angular momentum in pseudopotentials (lmaxx) =  3

     Atomic positions and unit cell read from directory:
     carbon-diamond-outdir/carbon-diamond.save/
 

     IMPORTANT: XC functional enforced from input :
     Exchange-correlation      = RVV10 ( 1  4 13  4 3 0)
     Any further DFT definition will be discarded
     Please, verify this is what you really want

     Message from routine read_upf::
     Pseudo file ../PP/C.rvv10-n-kjpaw_psl.1.0.0.UPF has been successfully fixed on the fly.
To avoid this message in the future you can permanently fix 
 your pseudo files following instructions given in: 
https://gitlab.com/QEF/q-e/blob/master/upftools/how_to_fix_upf.md
               file C.rvv10-n-kjpaw_psl.1.0.0.UPF: wavefunction(s)  2S renormalized

     Subspace diagonalization in iterative solution of the eigenvalue problem:
     a serial algorithm will be used

 
     G-vector sticks info
     --------------------
     sticks:   dense  smooth     PW     G-vecs:    dense   smooth      PW
     Sum         139     139     55                 1067     1067     259
 


     bravais-lattice index     =            2
     lattice parameter (alat)  =       6.6750  a.u.
     unit-cell volume          =      74.3522 (a.u.)^3
     number of atoms/cell      =            2
     number of atomic types    =            1
     number of electrons       =         8.00
     number of Kohn-Sham states=            4
     kinetic-energy cutoff     =      23.0000  Ry
     charge density cutoff     =      92.0000  Ry
     Exchange-correlation      = RVV10 ( 1  4 13  4 3 0)

     celldm(1)=   6.675000  celldm(2)=   0.000000  celldm(3)=   0.000000
     celldm(4)=   0.000000  celldm(5)=   0.000000  celldm(6)=   0.000000

     crystal axes: (cart. coord. in units of alat)
               a(1) = (  -0.500000   0.000000   0.500000 )  
               a(2) = (   0.000000   0.500000   0.500000 )  
               a(3) = (  -0.500000   0.500000   0.000000 )  

     reciprocal axes: (cart. coord. in units 2 pi/alat)
               b(1) = ( -1.000000 -1.000000  1.000000 )  
               b(2) = (  1.000000  1.000000  1.000000 )  
               b(3) = ( -1.000000  1.000000 -1.000000 )  


     PseudoPot. # 1 for C  read from file:
     ../PP/C.rvv10-n-kjpaw_psl.1.0.0.UPF
     MD5 check sum: 175958e2ac4e34ad6c9c193bde28dc84
     Pseudo is Projector augmented-wave + core cor, Zval =  4.0
     Generated using "atomic" code by A. Dal Corso v.5.3.0 svn rev. 11974
     Shape of augmentation charge: PSQ
     Using radial grid of 1073 points,  4 beta functions with: 
                l(1) =   0
                l(2) =   0
                l(3) =   1
                l(4) =   1
     Q(r) pseudized with 0 coefficients 


     vdW kernel table read from file rVV10_kernel_table
     MD5 check sum: 0adebcfda141f5c367e246cc655065ca

     atomic species   valence    mass     pseudopotential
        C              4.00    12.01070     C ( 1.00)

     24 Sym. Ops. (no inversion) found
          (note: 24 additional sym.ops. were found but ignored
           their fractional translations are incommensurate with FFT grid)


   Cartesian axes

     site n.     atom                  positions (alat units)
         1           C   tau(   1) = (   0.0000000   0.0000000   0.0000000  )
         2           C   tau(   2) = (  -0.2500000   0.2500000   0.2500000  )

     number of k points=   121

     Number of k-points >= 100: set verbosity='high' to print them.

     Dense  grid:     1067 G-vectors     FFT dimensions: (  15,  15,  15)

     Estimated max dynamical RAM per process >       1.38 MB

     Check: negative/imaginary core charge=   -0.002299    0.000000

     The potential is recalculated from file :
     carbon-diamond-outdir/carbon-diamond.save/charge-density.dat



---------------------------------------------------------------------------------
Carrying out rVV10 run using the following parameters:
Nqs =      20    Nr_points =    1024   r_max =   100.000
b_value =  6.30000    beta =  0.00901
     q_mesh =  0.00010000  0.00030000  0.00058939  0.00100810
               0.00161396  0.00249058  0.00375900  0.00559430
               0.00824984  0.01209221  0.01765183  0.02569619
               0.03733578  0.05417739  0.07854596  0.11380545
               0.16482331  0.23864234  0.34545298  0.50000000

Gradients computed in Reciprocal space

---------------------------------------------------------------------------------


     Starting wfcs are    8 randomized atomic wfcs
     Checking if some PAW data can be deallocated... 

     Band Structure Calculation
     Davidson diagonalization with overlap

     ethr =  1.25E-08,  avg # of iterations =  6.3

     total cpu time spent up to now is        1.2 secs

     End of band structure calculation

     Number of k-points >= 100: set verbosity='high' to print the bands.

     Writing output data file carbon-diamond.save/
 
     init_run     :      0.11s CPU      0.11s WALL (       1 calls)
     electrons    :      0.46s CPU      0.46s WALL (       1 calls)

     Called by init_run:
     wfcinit      :      0.00s CPU      0.00s WALL (       1 calls)
     potinit      :      0.06s CPU      0.06s WALL (       1 calls)
     hinit0       :      0.05s CPU      0.05s WALL (       1 calls)

     Called by electrons:
     c_bands      :      0.46s CPU      0.46s WALL (       1 calls)
     v_of_rho     :      0.01s CPU      0.01s WALL (       1 calls)
     newd         :      0.00s CPU      0.00s WALL (       1 calls)
     PAW_pot      :      0.05s CPU      0.05s WALL (       1 calls)

     Called by c_bands:
     init_us_2    :      0.00s CPU      0.00s WALL (     121 calls)
     cegterg      :      0.39s CPU      0.36s WALL (     121 calls)

     Called by sum_band:

     Called by *egterg:
     h_psi        :      0.35s CPU      0.37s WALL (    1005 calls)
     s_psi        :      0.02s CPU      0.01s WALL (    1005 calls)
     g_psi        :      0.00s CPU      0.00s WALL (     763 calls)
     cdiaghg      :      0.06s CPU      0.03s WALL (     884 calls)

     Called by h_psi:
     h_psi:pot    :      0.35s CPU      0.37s WALL (    1005 calls)
     h_psi:calbec :      0.00s CPU      0.01s WALL (    1005 calls)
     vloc_psi     :      0.34s CPU      0.35s WALL (    1005 calls)
     add_vuspsi   :      0.01s CPU      0.01s WALL (    1005 calls)

     General routines
     calbec       :      0.00s CPU      0.01s WALL (    1005 calls)
     fft          :      0.00s CPU      0.00s WALL (      63 calls)
     fftw         :      0.32s CPU      0.33s WALL (    8850 calls)
     davcio       :      0.00s CPU      0.00s WALL (     242 calls)
 
     Parallel routines
 
     PWSCF        :     1.16s CPU         1.24s WALL

 
   This run was terminated on:  14:49:40   8Apr2022            

=------------------------------------------------------------------------------=
   JOB DONE.
=------------------------------------------------------------------------------=
