 BEGIN_INFO
   #
   # this is a Band-XCRYSDEN-Structure-File
   # aimed at Visualization of Fermi Surface
   #
   # Case:   aluminium_fs.bxsf
   #
 Fermi Energy:          7.0817
 END_INFO
 BEGIN_BLOCK_BANDGRID_3D
 band_energies
 BANDGRID_3D_BANDS
    2
   16   16   16
  0.000000  0.000000  0.000000
 -1.000000 -1.000000  1.000000
  1.000000  1.000000  1.000000
 -1.000000  1.000000 -1.000000
BAND:   1
   -3.1914   -3.0646   -2.6830   -2.0535   -1.1794   -0.0658
    1.2753    2.8362    2.8362    1.2753   -0.0658   -1.1794
   -2.0535   -2.6830   -3.0646   -3.1914   -3.0646   -3.0224
   -2.7250   -2.1783   -1.3861   -0.3545    0.9104    2.3994
    3.4977    1.8783    0.4638   -0.7236   -1.6772   -2.3879
   -2.8530   -3.0646   -2.6830   -2.7250   -2.5159   -2.0527
   -1.3445   -0.3958    0.7900    2.2002    3.8066    2.7178
    1.2353   -0.0246   -1.0534   -1.8454   -2.3879   -2.6830
   -2.0535   -2.1783   -2.0527   -1.6747   -1.0528   -0.1875
    0.9111    2.2402    3.7791    3.7833    2.2404    0.9126
   -0.1885   -1.0534   -1.6772   -2.0535   -1.1794   -1.3861
   -1.3445   -1.0528   -0.5171    0.2605    1.2759    2.5173
    3.9725    5.0406    3.4724    2.0814    0.9126   -0.0246
   -0.7236   -1.1794   -0.0658   -0.3545   -0.3958   -0.1875
    0.2605    0.9515    1.8765    3.0270    4.3847    5.8715
    4.9142    3.4724    2.2404    1.2353    0.4638   -0.0658
    1.2753    0.9104    0.7900    0.9111    1.2759    1.8765
    2.7091    3.7612    4.9804    5.9961    5.8715    5.0406
    3.7833    2.7178    1.8783    1.2753    2.8362    2.3994
    2.2002    2.2402    2.5173    3.0270    3.7612    4.6740
    5.4041    4.9804    4.3847    3.9725    3.7791    3.8066
    3.4977    2.8362    2.8362    3.4977    3.8066    3.7791
    3.9725    4.3847    4.9804    5.4041    4.6740    3.7612
    3.0270    2.5173    2.2402    2.2002    2.3994    2.8362
    1.2753    1.8783    2.7178    3.7833    5.0406    5.8715
    5.9961    4.9804    3.7612    2.7091    1.8765    1.2759
    0.9111    0.7900    0.9104    1.2753   -0.0658    0.4638
    1.2353    2.2404    3.4724    4.9142    5.8715    4.3847
    3.0270    1.8765    0.9515    0.2605   -0.1875   -0.3958
   -0.3545   -0.0658   -1.1794   -0.7236   -0.0246    0.9126
    2.0814    3.4724    5.0406    3.9725    2.5173    1.2759
    0.2605   -0.5171   -1.0528   -1.3445   -1.3861   -1.1794
   -2.0535   -1.6772   -1.0534   -0.1885    0.9126    2.2404
    3.7833    3.7791    2.2402    0.9111   -0.1875   -1.0528
   -1.6747   -2.0527   -2.1783   -2.0535   -2.6830   -2.3879
   -1.8454   -1.0534   -0.0246    1.2353    2.7178    3.8066
    2.2002    0.7900   -0.3958   -1.3445   -2.0527   -2.5159
   -2.7250   -2.6830   -3.0646   -2.8530   -2.3879   -1.6772
   -0.7236    0.4638    1.8783    3.4977    2.3994    0.9104
   -0.3545   -1.3861   -2.1783   -2.7250   -3.0224   -3.0646
   -3.1914   -3.0646   -2.6830   -2.0535   -1.1794   -0.0658
    1.2753    2.8362    2.8362    1.2753   -0.0658   -1.1794
   -2.0535   -2.6830   -3.0646   -3.1914   -3.0646   -3.0224
   -2.7250   -2.1783   -1.3861   -0.3545    0.9104    2.3994
    3.4977    1.8783    0.4638   -0.7236   -1.6772   -2.3879
   -2.8530   -3.0646   -3.0224   -3.0646   -2.8530   -2.3879
   -1.6772   -0.7236    0.4638    1.8783    3.4977    2.3994
    0.9104   -0.3545   -1.3861   -2.1783   -2.7250   -3.0224
   -2.7250   -2.8530   -2.7250   -2.3468   -1.7182   -0.8475
    0.2602    1.5981    3.1536    3.1536    1.5981    0.2602
   -0.8475   -1.7182   -2.3468   -2.7250   -2.1783   -2.3879
   -2.3468   -2.0527   -1.5110   -0.7232    0.3010    1.5577
    3.0344    4.1161    2.5198    1.1144   -0.0660   -1.0124
   -1.7182   -2.1783   -1.3861   -1.6772   -1.7182   -1.5110
   -1.0528   -0.3533    0.5881    1.7595    3.1522    4.7247
    3.6665    2.2014    0.9530   -0.0660   -0.8475   -1.3861
   -0.3545   -0.7236   -0.8475   -0.7232   -0.3533    0.2605
    1.1150    2.1984    3.5012    4.9978    5.0254    3.5104
    2.2014    1.1144    0.2602   -0.3545    0.9104    0.4638
    0.2602    0.3010    0.5881    1.1150    1.8765    2.8693
    4.0730    5.4354    6.5592    5.0254    3.6665    2.5198
    1.5981    0.9104    2.3994    1.8783    1.5981    1.5577
    1.7595    2.1984    2.8693    3.7612    4.8273    5.6993
    5.4354    4.9978    4.7247    4.1161    3.1536    2.3994
    3.4977    3.4977    3.1536    3.0344    3.1522    3.5012
    4.0730    4.8273    5.4041    4.8273    4.0730    3.5012
    3.1522    3.0344    3.1536    3.4977    1.8783    2.3994
    3.1536    4.1161    4.7247    4.9978    5.4354    5.6993
    4.8273    3.7612    2.8693    2.1984    1.7595    1.5577
    1.5981    1.8783    0.4638    0.9104    1.5981    2.5198
    3.6665    5.0254    6.5592    5.4354    4.0730    2.8693
    1.8765    1.1150    0.5881    0.3010    0.2602    0.4638
   -0.7236   -0.3545    0.2602    1.1144    2.2014    3.5104
    5.0254    4.9978    3.5012    2.1984    1.1150    0.2605
   -0.3533   -0.7232   -0.8475   -0.7236   -1.6772   -1.3861
   -0.8475   -0.0660    0.9530    2.2014    3.6665    4.7247
    3.1522    1.7595    0.5881   -0.3533   -1.0528   -1.5110
   -1.7182   -1.6772   -2.3879   -2.1783   -1.7182   -1.0124
   -0.0660    1.1144    2.5198    4.1161    3.0344    1.5577
    0.3010   -0.7232   -1.5110   -2.0527   -2.3468   -2.3879
   -2.8530   -2.7250   -2.3468   -1.7182   -0.8475    0.2602
    1.5981    3.1536    3.1536    1.5981    0.2602   -0.8475
   -1.7182   -2.3468   -2.7250   -2.8530   -3.0646   -3.0224
   -2.7250   -2.1783   -1.3861   -0.3545    0.9104    2.3994
    3.4977    1.8783    0.4638   -0.7236   -1.6772   -2.3879
   -2.8530   -3.0646   -2.6830   -2.7250   -2.5159   -2.0527
   -1.3445   -0.3958    0.7900    2.2002    3.8066    2.7178
    1.2353   -0.0246   -1.0534   -1.8454   -2.3879   -2.6830
   -2.7250   -2.8530   -2.7250   -2.3468   -1.7182   -0.8475
    0.2602    1.5981    3.1536    3.1536    1.5981    0.2602
   -0.8475   -1.7182   -2.3468   -2.7250   -2.5159   -2.7250
   -2.6830   -2.3879   -1.8454   -1.0534   -0.0246    1.2353
    2.7178    3.8066    2.2002    0.7900   -0.3958   -1.3445
   -2.0527   -2.5159   -2.0527   -2.3468   -2.3879   -2.1783
   -1.7182   -1.0124   -0.0660    1.1144    2.5198    4.1161
    3.0344    1.5577    0.3010   -0.7232   -1.5110   -2.0527
   -1.3445   -1.7182   -1.8454   -1.7182   -1.3445   -0.7232
    0.1393    1.2348    2.5592    4.0924    4.0924    2.5592
    1.2348    0.1393   -0.7232   -1.3445   -0.3958   -0.8475
   -1.0534   -1.0124   -0.7232   -0.1875    0.5881    1.5991
    2.8352    4.2834    5.3385    3.7828    2.3988    1.2348
    0.3010   -0.3958    0.7900    0.2602   -0.0246   -0.0660
    0.1393    0.5881    1.2759    2.1984    3.3441    4.6942
    6.1746    5.2148    3.7828    2.5592    1.5577    0.7900
    2.2002    1.5981    1.2353    1.1144    1.2348    1.5991
    2.1984    3.0270    4.0730    5.2847    6.2919    6.1746
    5.3385    4.0924    3.0344    2.2002    3.8066    3.1536
    2.7178    2.5198    2.5592    2.8352    3.3441    4.0730
    4.9804    5.6993    5.2847    4.6942    4.2834    4.0924
    4.1161    3.8066    2.7178    3.1536    3.8066    4.1161
    4.0924    4.2834    4.6942    5.2847    5.6993    4.9804
    4.0730    3.3441    2.8352    2.5592    2.5198    2.7178
    1.2353    1.5981    2.2002    3.0344    4.0924    5.3385
    6.1746    6.2919    5.2847    4.0730    3.0270    2.1984
    1.5991    1.2348    1.1144    1.2353   -0.0246    0.2602
    0.7900    1.5577    2.5592    3.7828    5.2148    6.1746
    4.6942    3.3441    2.1984    1.2759    0.5881    0.1393
   -0.0660   -0.0246   -1.0534   -0.8475   -0.3958    0.3010
    1.2348    2.3988    3.7828    5.3385    4.2834    2.8352
    1.5991    0.5881   -0.1875   -0.7232   -1.0124   -1.0534
   -1.8454   -1.7182   -1.3445   -0.7232    0.1393    1.2348
    2.5592    4.0924    4.0924    2.5592    1.2348    0.1393
   -0.7232   -1.3445   -1.7182   -1.8454   -2.3879   -2.3468
   -2.0527   -1.5110   -0.7232    0.3010    1.5577    3.0344
    4.1161    2.5198    1.1144   -0.0660   -1.0124   -1.7182
   -2.1783   -2.3879   -2.6830   -2.7250   -2.5159   -2.0527
   -1.3445   -0.3958    0.7900    2.2002    3.8066    2.7178
    1.2353   -0.0246   -1.0534   -1.8454   -2.3879   -2.6830
   -2.0535   -2.1783   -2.0527   -1.6747   -1.0528   -0.1875
    0.9111    2.2402    3.7791    3.7833    2.2404    0.9126
   -0.1885   -1.0534   -1.6772   -2.0535   -2.1783   -2.3879
   -2.3468   -2.0527   -1.5110   -0.7232    0.3010    1.5577
    3.0344    4.1161    2.5198    1.1144   -0.0660   -1.0124
   -1.7182   -2.1783   -2.0527   -2.3468   -2.3879   -2.1783
   -1.7182   -1.0124   -0.0660    1.1144    2.5198    4.1161
    3.0344    1.5577    0.3010   -0.7232   -1.5110   -2.0527
   -1.6747   -2.0527   -2.1783   -2.0535   -1.6772   -1.0534
   -0.1885    0.9126    2.2404    3.7833    3.7791    2.2402
    0.9111   -0.1875   -1.0528   -1.6747   -1.0528   -1.5110
   -1.7182   -1.6772   -1.3861   -0.8475   -0.0660    0.9530
    2.2014    3.6665    4.7247    3.1522    1.7595    0.5881
   -0.3533   -1.0528   -0.1875   -0.7232   -1.0124   -1.0534
   -0.8475   -0.3958    0.3010    1.2348    2.3988    3.7828
    5.3385    4.2834    2.8352    1.5991    0.5881   -0.1875
    0.9111    0.3010   -0.0660   -0.1885   -0.0660    0.3010
    0.9111    1.7595    2.8352    4.1283    5.6135    5.6135
    4.1283    2.8352    1.7595    0.9111    2.2402    1.5577
    1.1144    0.9126    0.9530    1.2348    1.7595    2.5173
    3.5012    4.6942    6.0425    7.0817    5.6135    4.2834
    3.1522    2.2402    3.7791    3.0344    2.5198    2.2404
    2.2014    2.3988    2.8352    3.5012    4.3847    5.4354
    6.2919    6.0425    5.6135    5.3385    4.7247    3.7791
    3.7833    4.1161    4.1161    3.7833    3.6665    3.7828
    4.1283    4.6942    5.4354    5.9961    5.4354    4.6942
    4.1283    3.7828    3.6665    3.7833    2.2404    2.5198
    3.0344    3.7791    4.7247    5.3385    5.6135    6.0425
    6.2919    5.4354    4.3847    3.5012    2.8352    2.3988
    2.2014    2.2404    0.9126    1.1144    1.5577    2.2402
    3.1522    4.2834    5.6135    7.0817    6.0425    4.6942
    3.5012    2.5173    1.7595    1.2348    0.9530    0.9126
   -0.1885   -0.0660    0.3010    0.9111    1.7595    2.8352
    4.1283    5.6135    5.6135    4.1283    2.8352    1.7595
    0.9111    0.3010   -0.0660   -0.1885   -1.0534   -1.0124
   -0.7232   -0.1875    0.5881    1.5991    2.8352    4.2834
    5.3385    3.7828    2.3988    1.2348    0.3010   -0.3958
   -0.8475   -1.0534   -1.6772   -1.7182   -1.5110   -1.0528
   -0.3533    0.5881    1.7595    3.1522    4.7247    3.6665
    2.2014    0.9530   -0.0660   -0.8475   -1.3861   -1.6772
   -2.0535   -2.1783   -2.0527   -1.6747   -1.0528   -0.1875
    0.9111    2.2402    3.7791    3.7833    2.2404    0.9126
   -0.1885   -1.0534   -1.6772   -2.0535   -1.1794   -1.3861
   -1.3445   -1.0528   -0.5171    0.2605    1.2759    2.5173
    3.9725    5.0406    3.4724    2.0814    0.9126   -0.0246
   -0.7236   -1.1794   -1.3861   -1.6772   -1.7182   -1.5110
   -1.0528   -0.3533    0.5881    1.7595    3.1522    4.7247
    3.6665    2.2014    0.9530   -0.0660   -0.8475   -1.3861
   -1.3445   -1.7182   -1.8454   -1.7182   -1.3445   -0.7232
    0.1393    1.2348    2.5592    4.0924    4.0924    2.5592
    1.2348    0.1393   -0.7232   -1.3445   -1.0528   -1.5110
   -1.7182   -1.6772   -1.3861   -0.8475   -0.0660    0.9530
    2.2014    3.6665    4.7247    3.1522    1.7595    0.5881
   -0.3533   -1.0528   -0.5171   -1.0528   -1.3445   -1.3861
   -1.1794   -0.7236   -0.0246    0.9126    2.0814    3.4724
    5.0406    3.9725    2.5173    1.2759    0.2605   -0.5171
    0.2605   -0.3533   -0.7232   -0.8475   -0.7236   -0.3545
    0.2602    1.1144    2.2014    3.5104    5.0254    4.9978
    3.5012    2.1984    1.1150    0.2605    1.2759    0.5881
    0.1393   -0.0660   -0.0246    0.2602    0.7900    1.5577
    2.5592    3.7828    5.2148    6.1746    4.6942    3.3441
    2.1984    1.2759    2.5173    1.7595    1.2348    0.9530
    0.9126    1.1144    1.5577    2.2402    3.1522    4.2834
    5.6135    7.0817    6.0425    4.6942    3.5012    2.5173
    3.9725    3.1522    2.5592    2.2014    2.0814    2.2014
    2.5592    3.1522    3.9725    4.9978    6.1746    7.0817
    7.0817    6.1746    4.9978    3.9725    5.0406    4.7247
    4.0924    3.6665    3.4724    3.5104    3.7828    4.2834
    4.9978    5.8715    6.5592    6.1746    5.6135    5.2148
    5.0254    5.0406    3.4724    3.6665    4.0924    4.7247
    5.0406    5.0254    5.2148    5.6135    6.1746    6.5592
    5.8715    4.9978    4.2834    3.7828    3.5104    3.4724
    2.0814    2.2014    2.5592    3.1522    3.9725    4.9978
    6.1746    7.0817    7.0817    6.1746    4.9978    3.9725
    3.1522    2.5592    2.2014    2.0814    0.9126    0.9530
    1.2348    1.7595    2.5173    3.5012    4.6942    6.0425
    7.0817    5.6135    4.2834    3.1522    2.2402    1.5577
    1.1144    0.9126   -0.0246   -0.0660    0.1393    0.5881
    1.2759    2.1984    3.3441    4.6942    6.1746    5.2148
    3.7828    2.5592    1.5577    0.7900    0.2602   -0.0246
   -0.7236   -0.8475   -0.7232   -0.3533    0.2605    1.1150
    2.1984    3.5012    4.9978    5.0254    3.5104    2.2014
    1.1144    0.2602   -0.3545   -0.7236   -1.1794   -1.3861
   -1.3445   -1.0528   -0.5171    0.2605    1.2759    2.5173
    3.9725    5.0406    3.4724    2.0814    0.9126   -0.0246
   -0.7236   -1.1794   -0.0658   -0.3545   -0.3958   -0.1875
    0.2605    0.9515    1.8765    3.0270    4.3847    5.8715
    4.9142    3.4724    2.2404    1.2353    0.4638   -0.0658
   -0.3545   -0.7236   -0.8475   -0.7232   -0.3533    0.2605
    1.1150    2.1984    3.5012    4.9978    5.0254    3.5104
    2.2014    1.1144    0.2602   -0.3545   -0.3958   -0.8475
   -1.0534   -1.0124   -0.7232   -0.1875    0.5881    1.5991
    2.8352    4.2834    5.3385    3.7828    2.3988    1.2348
    0.3010   -0.3958   -0.1875   -0.7232   -1.0124   -1.0534
   -0.8475   -0.3958    0.3010    1.2348    2.3988    3.7828
    5.3385    4.2834    2.8352    1.5991    0.5881   -0.1875
    0.2605   -0.3533   -0.7232   -0.8475   -0.7236   -0.3545
    0.2602    1.1144    2.2014    3.5104    5.0254    4.9978
    3.5012    2.1984    1.1150    0.2605    0.9515    0.2605
   -0.1875   -0.3958   -0.3545   -0.0658    0.4638    1.2353
    2.2404    3.4724    4.9142    5.8715    4.3847    3.0270
    1.8765    0.9515    1.8765    1.1150    0.5881    0.3010
    0.2602    0.4638    0.9104    1.5981    2.5198    3.6665
    5.0254    6.5592    5.4354    4.0730    2.8693    1.8765
    3.0270    2.1984    1.5991    1.2348    1.1144    1.2353
    1.5981    2.2002    3.0344    4.0924    5.3385    6.1746
    6.2919    5.2847    4.0730    3.0270    4.3847    3.5012
    2.8352    2.3988    2.2014    2.2404    2.5198    3.0344
    3.7791    4.7247    5.3385    5.6135    6.0425    6.2919
    5.4354    4.3847    5.8715    4.9978    4.2834    3.7828
    3.5104    3.4724    3.6665    4.0924    4.7247    5.0406
    5.0254    5.2148    5.6135    6.1746    6.5592    5.8715
    4.9142    5.0254    5.3385    5.3385    5.0254    4.9142
    5.0254    5.3385    5.3385    5.0254    4.9142    5.0254
    5.3385    5.3385    5.0254    4.9142    3.4724    3.5104
    3.7828    4.2834    4.9978    5.8715    6.5592    6.1746
    5.6135    5.2148    5.0254    5.0406    4.7247    4.0924
    3.6665    3.4724    2.2404    2.2014    2.3988    2.8352
    3.5012    4.3847    5.4354    6.2919    6.0425    5.6135
    5.3385    4.7247    3.7791    3.0344    2.5198    2.2404
    1.2353    1.1144    1.2348    1.5991    2.1984    3.0270
    4.0730    5.2847    6.2919    6.1746    5.3385    4.0924
    3.0344    2.2002    1.5981    1.2353    0.4638    0.2602
    0.3010    0.5881    1.1150    1.8765    2.8693    4.0730
    5.4354    6.5592    5.0254    3.6665    2.5198    1.5981
    0.9104    0.4638   -0.0658   -0.3545   -0.3958   -0.1875
    0.2605    0.9515    1.8765    3.0270    4.3847    5.8715
    4.9142    3.4724    2.2404    1.2353    0.4638   -0.0658
    1.2753    0.9104    0.7900    0.9111    1.2759    1.8765
    2.7091    3.7612    4.9804    5.9961    5.8715    5.0406
    3.7833    2.7178    1.8783    1.2753    0.9104    0.4638
    0.2602    0.3010    0.5881    1.1150    1.8765    2.8693
    4.0730    5.4354    6.5592    5.0254    3.6665    2.5198
    1.5981    0.9104    0.7900    0.2602   -0.0246   -0.0660
    0.1393    0.5881    1.2759    2.1984    3.3441    4.6942
    6.1746    5.2148    3.7828    2.5592    1.5577    0.7900
    0.9111    0.3010   -0.0660   -0.1885   -0.0660    0.3010
    0.9111    1.7595    2.8352    4.1283    5.6135    5.6135
    4.1283    2.8352    1.7595    0.9111    1.2759    0.5881
    0.1393   -0.0660   -0.0246    0.2602    0.7900    1.5577
    2.5592    3.7828    5.2148    6.1746    4.6942    3.3441
    2.1984    1.2759    1.8765    1.1150    0.5881    0.3010
    0.2602    0.4638    0.9104    1.5981    2.5198    3.6665
    5.0254    6.5592    5.4354    4.0730    2.8693    1.8765
    2.7091    1.8765    1.2759    0.9111    0.7900    0.9104
    1.2753    1.8783    2.7178    3.7833    5.0406    5.8715
    5.9961    4.9804    3.7612    2.7091    3.7612    2.8693
    2.1984    1.7595    1.5577    1.5981    1.8783    2.3994
    3.1536    4.1161    4.7247    4.9978    5.4354    5.6993
    4.8273    3.7612    4.9804    4.0730    3.3441    2.8352
    2.5592    2.5198    2.7178    3.1536    3.8066    4.1161
    4.0924    4.2834    4.6942    5.2847    5.6993    4.9804
    5.9961    5.4354    4.6942    4.1283    3.7828    3.6665
    3.7833    4.1161    4.1161    3.7833    3.6665    3.7828
    4.1283    4.6942    5.4354    5.9961    5.8715    6.5592
    6.1746    5.6135    5.2148    5.0254    5.0406    4.7247
    4.0924    3.6665    3.4724    3.5104    3.7828    4.2834
    4.9978    5.8715    5.0406    5.0254    5.2148    5.6135
    6.1746    6.5592    5.8715    4.9978    4.2834    3.7828
    3.5104    3.4724    3.6665    4.0924    4.7247    5.0406
    3.7833    3.6665    3.7828    4.1283    4.6942    5.4354
    5.9961    5.4354    4.6942    4.1283    3.7828    3.6665
    3.7833    4.1161    4.1161    3.7833    2.7178    2.5198
    2.5592    2.8352    3.3441    4.0730    4.9804    5.6993
    5.2847    4.6942    4.2834    4.0924    4.1161    3.8066
    3.1536    2.7178    1.8783    1.5981    1.5577    1.7595
    2.1984    2.8693    3.7612    4.8273    5.6993    5.4354
    4.9978    4.7247    4.1161    3.1536    2.3994    1.8783
    1.2753    0.9104    0.7900    0.9111    1.2759    1.8765
    2.7091    3.7612    4.9804    5.9961    5.8715    5.0406
    3.7833    2.7178    1.8783    1.2753    2.8362    2.3994
    2.2002    2.2402    2.5173    3.0270    3.7612    4.6740
    5.4041    4.9804    4.3847    3.9725    3.7791    3.8066
    3.4977    2.8362    2.3994    1.8783    1.5981    1.5577
    1.7595    2.1984    2.8693    3.7612    4.8273    5.6993
    5.4354    4.9978    4.7247    4.1161    3.1536    2.3994
    2.2002    1.5981    1.2353    1.1144    1.2348    1.5991
    2.1984    3.0270    4.0730    5.2847    6.2919    6.1746
    5.3385    4.0924    3.0344    2.2002    2.2402    1.5577
    1.1144    0.9126    0.9530    1.2348    1.7595    2.5173
    3.5012    4.6942    6.0425    7.0817    5.6135    4.2834
    3.1522    2.2402    2.5173    1.7595    1.2348    0.9530
    0.9126    1.1144    1.5577    2.2402    3.1522    4.2834
    5.6135    7.0817    6.0425    4.6942    3.5012    2.5173
    3.0270    2.1984    1.5991    1.2348    1.1144    1.2353
    1.5981    2.2002    3.0344    4.0924    5.3385    6.1746
    6.2919    5.2847    4.0730    3.0270    3.7612    2.8693
    2.1984    1.7595    1.5577    1.5981    1.8783    2.3994
    3.1536    4.1161    4.7247    4.9978    5.4354    5.6993
    4.8273    3.7612    4.6740    3.7612    3.0270    2.5173
    2.2402    2.2002    2.3994    2.8362    3.4977    3.8066
    3.7791    3.9725    4.3847    4.9804    5.4041    4.6740
    5.4041    4.8273    4.0730    3.5012    3.1522    3.0344
    3.1536    3.4977    3.4977    3.1536    3.0344    3.1522
    3.5012    4.0730    4.8273    5.4041    4.9804    5.6993
    5.2847    4.6942    4.2834    4.0924    4.1161    3.8066
    3.1536    2.7178    2.5198    2.5592    2.8352    3.3441
    4.0730    4.9804    4.3847    5.4354    6.2919    6.0425
    5.6135    5.3385    4.7247    3.7791    3.0344    2.5198
    2.2404    2.2014    2.3988    2.8352    3.5012    4.3847
    3.9725    4.9978    6.1746    7.0817    7.0817    6.1746
    4.9978    3.9725    3.1522    2.5592    2.2014    2.0814
    2.2014    2.5592    3.1522    3.9725    3.7791    4.7247
    5.3385    5.6135    6.0425    6.2919    5.4354    4.3847
    3.5012    2.8352    2.3988    2.2014    2.2404    2.5198
    3.0344    3.7791    3.8066    4.1161    4.0924    4.2834
    4.6942    5.2847    5.6993    4.9804    4.0730    3.3441
    2.8352    2.5592    2.5198    2.7178    3.1536    3.8066
    3.4977    3.1536    3.0344    3.1522    3.5012    4.0730
    4.8273    5.4041    4.8273    4.0730    3.5012    3.1522
    3.0344    3.1536    3.4977    3.4977    2.8362    2.3994
    2.2002    2.2402    2.5173    3.0270    3.7612    4.6740
    5.4041    4.9804    4.3847    3.9725    3.7791    3.8066
    3.4977    2.8362    2.8362    3.4977    3.8066    3.7791
    3.9725    4.3847    4.9804    5.4041    4.6740    3.7612
    3.0270    2.5173    2.2402    2.2002    2.3994    2.8362
    3.4977    3.4977    3.1536    3.0344    3.1522    3.5012
    4.0730    4.8273    5.4041    4.8273    4.0730    3.5012
    3.1522    3.0344    3.1536    3.4977    3.8066    3.1536
    2.7178    2.5198    2.5592    2.8352    3.3441    4.0730
    4.9804    5.6993    5.2847    4.6942    4.2834    4.0924
    4.1161    3.8066    3.7791    3.0344    2.5198    2.2404
    2.2014    2.3988    2.8352    3.5012    4.3847    5.4354
    6.2919    6.0425    5.6135    5.3385    4.7247    3.7791
    3.9725    3.1522    2.5592    2.2014    2.0814    2.2014
    2.5592    3.1522    3.9725    4.9978    6.1746    7.0817
    7.0817    6.1746    4.9978    3.9725    4.3847    3.5012
    2.8352    2.3988    2.2014    2.2404    2.5198    3.0344
    3.7791    4.7247    5.3385    5.6135    6.0425    6.2919
    5.4354    4.3847    4.9804    4.0730    3.3441    2.8352
    2.5592    2.5198    2.7178    3.1536    3.8066    4.1161
    4.0924    4.2834    4.6942    5.2847    5.6993    4.9804
    5.4041    4.8273    4.0730    3.5012    3.1522    3.0344
    3.1536    3.4977    3.4977    3.1536    3.0344    3.1522
    3.5012    4.0730    4.8273    5.4041    4.6740    5.4041
    4.9804    4.3847    3.9725    3.7791    3.8066    3.4977
    2.8362    2.3994    2.2002    2.2402    2.5173    3.0270
    3.7612    4.6740    3.7612    4.8273    5.6993    5.4354
    4.9978    4.7247    4.1161    3.1536    2.3994    1.8783
    1.5981    1.5577    1.7595    2.1984    2.8693    3.7612
    3.0270    4.0730    5.2847    6.2919    6.1746    5.3385
    4.0924    3.0344    2.2002    1.5981    1.2353    1.1144
    1.2348    1.5991    2.1984    3.0270    2.5173    3.5012
    4.6942    6.0425    7.0817    5.6135    4.2834    3.1522
    2.2402    1.5577    1.1144    0.9126    0.9530    1.2348
    1.7595    2.5173    2.2402    3.1522    4.2834    5.6135
    7.0817    6.0425    4.6942    3.5012    2.5173    1.7595
    1.2348    0.9530    0.9126    1.1144    1.5577    2.2402
    2.2002    3.0344    4.0924    5.3385    6.1746    6.2919
    5.2847    4.0730    3.0270    2.1984    1.5991    1.2348
    1.1144    1.2353    1.5981    2.2002    2.3994    3.1536
    4.1161    4.7247    4.9978    5.4354    5.6993    4.8273
    3.7612    2.8693    2.1984    1.7595    1.5577    1.5981
    1.8783    2.3994    2.8362    3.4977    3.8066    3.7791
    3.9725    4.3847    4.9804    5.4041    4.6740    3.7612
    3.0270    2.5173    2.2402    2.2002    2.3994    2.8362
    1.2753    1.8783    2.7178    3.7833    5.0406    5.8715
    5.9961    4.9804    3.7612    2.7091    1.8765    1.2759
    0.9111    0.7900    0.9104    1.2753    1.8783    2.3994
    3.1536    4.1161    4.7247    4.9978    5.4354    5.6993
    4.8273    3.7612    2.8693    2.1984    1.7595    1.5577
    1.5981    1.8783    2.7178    3.1536    3.8066    4.1161
    4.0924    4.2834    4.6942    5.2847    5.6993    4.9804
    4.0730    3.3441    2.8352    2.5592    2.5198    2.7178
    3.7833    4.1161    4.1161    3.7833    3.6665    3.7828
    4.1283    4.6942    5.4354    5.9961    5.4354    4.6942
    4.1283    3.7828    3.6665    3.7833    5.0406    4.7247
    4.0924    3.6665    3.4724    3.5104    3.7828    4.2834
    4.9978    5.8715    6.5592    6.1746    5.6135    5.2148
    5.0254    5.0406    5.8715    4.9978    4.2834    3.7828
    3.5104    3.4724    3.6665    4.0924    4.7247    5.0406
    5.0254    5.2148    5.6135    6.1746    6.5592    5.8715
    5.9961    5.4354    4.6942    4.1283    3.7828    3.6665
    3.7833    4.1161    4.1161    3.7833    3.6665    3.7828
    4.1283    4.6942    5.4354    5.9961    4.9804    5.6993
    5.2847    4.6942    4.2834    4.0924    4.1161    3.8066
    3.1536    2.7178    2.5198    2.5592    2.8352    3.3441
    4.0730    4.9804    3.7612    4.8273    5.6993    5.4354
    4.9978    4.7247    4.1161    3.1536    2.3994    1.8783
    1.5981    1.5577    1.7595    2.1984    2.8693    3.7612
    2.7091    3.7612    4.9804    5.9961    5.8715    5.0406
    3.7833    2.7178    1.8783    1.2753    0.9104    0.7900
    0.9111    1.2759    1.8765    2.7091    1.8765    2.8693
    4.0730    5.4354    6.5592    5.0254    3.6665    2.5198
    1.5981    0.9104    0.4638    0.2602    0.3010    0.5881
    1.1150    1.8765    1.2759    2.1984    3.3441    4.6942
    6.1746    5.2148    3.7828    2.5592    1.5577    0.7900
    0.2602   -0.0246   -0.0660    0.1393    0.5881    1.2759
    0.9111    1.7595    2.8352    4.1283    5.6135    5.6135
    4.1283    2.8352    1.7595    0.9111    0.3010   -0.0660
   -0.1885   -0.0660    0.3010    0.9111    0.7900    1.5577
    2.5592    3.7828    5.2148    6.1746    4.6942    3.3441
    2.1984    1.2759    0.5881    0.1393   -0.0660   -0.0246
    0.2602    0.7900    0.9104    1.5981    2.5198    3.6665
    5.0254    6.5592    5.4354    4.0730    2.8693    1.8765
    1.1150    0.5881    0.3010    0.2602    0.4638    0.9104
    1.2753    1.8783    2.7178    3.7833    5.0406    5.8715
    5.9961    4.9804    3.7612    2.7091    1.8765    1.2759
    0.9111    0.7900    0.9104    1.2753   -0.0658    0.4638
    1.2353    2.2404    3.4724    4.9142    5.8715    4.3847
    3.0270    1.8765    0.9515    0.2605   -0.1875   -0.3958
   -0.3545   -0.0658    0.4638    0.9104    1.5981    2.5198
    3.6665    5.0254    6.5592    5.4354    4.0730    2.8693
    1.8765    1.1150    0.5881    0.3010    0.2602    0.4638
    1.2353    1.5981    2.2002    3.0344    4.0924    5.3385
    6.1746    6.2919    5.2847    4.0730    3.0270    2.1984
    1.5991    1.2348    1.1144    1.2353    2.2404    2.5198
    3.0344    3.7791    4.7247    5.3385    5.6135    6.0425
    6.2919    5.4354    4.3847    3.5012    2.8352    2.3988
    2.2014    2.2404    3.4724    3.6665    4.0924    4.7247
    5.0406    5.0254    5.2148    5.6135    6.1746    6.5592
    5.8715    4.9978    4.2834    3.7828    3.5104    3.4724
    4.9142    5.0254    5.3385    5.3385    5.0254    4.9142
    5.0254    5.3385    5.3385    5.0254    4.9142    5.0254
    5.3385    5.3385    5.0254    4.9142    5.8715    6.5592
    6.1746    5.6135    5.2148    5.0254    5.0406    4.7247
    4.0924    3.6665    3.4724    3.5104    3.7828    4.2834
    4.9978    5.8715    4.3847    5.4354    6.2919    6.0425
    5.6135    5.3385    4.7247    3.7791    3.0344    2.5198
    2.2404    2.2014    2.3988    2.8352    3.5012    4.3847
    3.0270    4.0730    5.2847    6.2919    6.1746    5.3385
    4.0924    3.0344    2.2002    1.5981    1.2353    1.1144
    1.2348    1.5991    2.1984    3.0270    1.8765    2.8693
    4.0730    5.4354    6.5592    5.0254    3.6665    2.5198
    1.5981    0.9104    0.4638    0.2602    0.3010    0.5881
    1.1150    1.8765    0.9515    1.8765    3.0270    4.3847
    5.8715    4.9142    3.4724    2.2404    1.2353    0.4638
   -0.0658   -0.3545   -0.3958   -0.1875    0.2605    0.9515
    0.2605    1.1150    2.1984    3.5012    4.9978    5.0254
    3.5104    2.2014    1.1144    0.2602   -0.3545   -0.7236
   -0.8475   -0.7232   -0.3533    0.2605   -0.1875    0.5881
    1.5991    2.8352    4.2834    5.3385    3.7828    2.3988
    1.2348    0.3010   -0.3958   -0.8475   -1.0534   -1.0124
   -0.7232   -0.1875   -0.3958    0.3010    1.2348    2.3988
    3.7828    5.3385    4.2834    2.8352    1.5991    0.5881
   -0.1875   -0.7232   -1.0124   -1.0534   -0.8475   -0.3958
   -0.3545    0.2602    1.1144    2.2014    3.5104    5.0254
    4.9978    3.5012    2.1984    1.1150    0.2605   -0.3533
   -0.7232   -0.8475   -0.7236   -0.3545   -0.0658    0.4638
    1.2353    2.2404    3.4724    4.9142    5.8715    4.3847
    3.0270    1.8765    0.9515    0.2605   -0.1875   -0.3958
   -0.3545   -0.0658   -1.1794   -0.7236   -0.0246    0.9126
    2.0814    3.4724    5.0406    3.9725    2.5173    1.2759
    0.2605   -0.5171   -1.0528   -1.3445   -1.3861   -1.1794
   -0.7236   -0.3545    0.2602    1.1144    2.2014    3.5104
    5.0254    4.9978    3.5012    2.1984    1.1150    0.2605
   -0.3533   -0.7232   -0.8475   -0.7236   -0.0246    0.2602
    0.7900    1.5577    2.5592    3.7828    5.2148    6.1746
    4.6942    3.3441    2.1984    1.2759    0.5881    0.1393
   -0.0660   -0.0246    0.9126    1.1144    1.5577    2.2402
    3.1522    4.2834    5.6135    7.0817    6.0425    4.6942
    3.5012    2.5173    1.7595    1.2348    0.9530    0.9126
    2.0814    2.2014    2.5592    3.1522    3.9725    4.9978
    6.1746    7.0817    7.0817    6.1746    4.9978    3.9725
    3.1522    2.5592    2.2014    2.0814    3.4724    3.5104
    3.7828    4.2834    4.9978    5.8715    6.5592    6.1746
    5.6135    5.2148    5.0254    5.0406    4.7247    4.0924