
     Program PWSCF v.6.0 (svn rev. 13079) starts on 22Jun2018 at 12:52:24 

     This program is part of the open-source Quantum ESPRESSO suite
     for quantum simulation of materials; please cite
         "P. Giannozzi et al., J. Phys.:Condens. Matter 21 395502 (2009);
          URL http://www.quantum-espresso.org", 
     in publications or presentations arising from this work. More details at
     http://www.quantum-espresso.org/quote

     Parallel version (MPI), running on     1 processors
     Waiting for input...
     Reading input from standard input

     Current dimensions of program PWSCF are:
     Max number of different atomic species (ntypx) = 10
     Max number of k-points (npk) =  40000
     Max angular momentum in pseudopotentials (lmaxx) =  3

     Subspace diagonalization in iterative solution of the eigenvalue problem:
     a serial algorithm will be used


     G-vector sticks info
     --------------------
     sticks:   dense  smooth     PW     G-vecs:    dense   smooth      PW
     Sum         649     649    199                10849    10849    1837



     bravais-lattice index     =            2
     lattice parameter (alat)  =      10.2000  a.u.
     unit-cell volume          =     265.3020 (a.u.)^3
     number of atoms/cell      =            2
     number of atomic types    =            1
     number of electrons       =         8.00
     number of Kohn-Sham states=            4
     kinetic-energy cutoff     =      45.0000  Ry
     charge density cutoff     =     180.0000  Ry
     convergence threshold     =      1.0E-08
     mixing beta               =       0.7000
     number of iterations used =            8  plain     mixing
     Exchange-correlation      =  SLA  PZ   NOGX NOGC ( 1  1  0  0 0 0)

     celldm(1)=  10.200000  celldm(2)=   0.000000  celldm(3)=   0.000000
     celldm(4)=   0.000000  celldm(5)=   0.000000  celldm(6)=   0.000000

     crystal axes: (cart. coord. in units of alat)
               a(1) = (  -0.500000   0.000000   0.500000 )  
               a(2) = (   0.000000   0.500000   0.500000 )  
               a(3) = (  -0.500000   0.500000   0.000000 )  

     reciprocal axes: (cart. coord. in units 2 pi/alat)
               b(1) = ( -1.000000 -1.000000  1.000000 )  
               b(2) = (  1.000000  1.000000  1.000000 )  
               b(3) = ( -1.000000  1.000000 -1.000000 )  


     PseudoPot. # 1 for Si read from file:
     ../../../PP/Si.pz-vbc.UPF
     MD5 check sum: 6dfa03ddd5817404712e03e4d12deb78
     Pseudo is Norm-conserving, Zval =  4.0
     Generated by new atomic code, or converted to UPF format
     Using radial grid of  431 points,  2 beta functions with: 
                l(1) =   0
                l(2) =   1

     atomic species   valence    mass     pseudopotential
        Si             4.00    28.08600     Si( 1.00)

     48 Sym. Ops., with inversion, found (24 have fractional translation)



   Cartesian axes

     site n.     atom                  positions (alat units)
         1           Si  tau(   1) = (   0.0000000   0.0000000   0.0000000  )
         2           Si  tau(   2) = (  -0.2500000   0.2500000   0.2500000  )

     number of k points=    10
                       cart. coord. in units 2pi/alat
        k(    1) = (   0.0000000   0.0000000   0.0000000), wk =   0.0160000
        k(    2) = (  -0.2000000   0.2000000  -0.2000000), wk =   0.1280000
        k(    3) = (  -0.4000000   0.4000000  -0.4000000), wk =   0.1280000
        k(    4) = (   0.0000000   0.4000000   0.0000000), wk =   0.0960000
        k(    5) = (  -0.2000000   0.6000000  -0.2000000), wk =   0.3840000
        k(    6) = (   0.6000000  -0.2000000   0.6000000), wk =   0.3840000
        k(    7) = (   0.4000000   0.0000000   0.4000000), wk =   0.1920000
        k(    8) = (   0.0000000   0.8000000   0.0000000), wk =   0.0960000
        k(    9) = (   0.8000000   0.0000000   0.8000000), wk =   0.1920000
        k(   10) = (   0.6000000  -0.2000000   1.0000000), wk =   0.3840000

     Dense  grid:    10849 G-vectors     FFT dimensions: (  32,  32,  32)

     Estimated max dynamical RAM per process >       8.01Mb

     Initial potential from superposition of free atoms

     starting charge    7.99901, renormalised to    8.00000
     Starting wfc are    8 randomized atomic wfcs

     total cpu time spent up to now is        0.2 secs

     per-process dynamical memory:    10.2 Mb

     Self-consistent Calculation

     iteration #  1     ecut=    45.00 Ry     beta=0.70
     Davidson diagonalization with overlap
     ethr =  1.00E-02,  avg # of iterations =  2.0

     Threshold (ethr) on eigenvalues was too large:
     Diagonalizing with lowered threshold

     Davidson diagonalization with overlap
     ethr =  8.26E-04,  avg # of iterations =  1.0

     total cpu time spent up to now is        0.3 secs

     total energy              =     -15.84495795 Ry
     Harris-Foulkes estimate   =     -15.86700410 Ry
     estimated scf accuracy    <       0.06435268 Ry

     iteration #  2     ecut=    45.00 Ry     beta=0.70
     Davidson diagonalization with overlap
     ethr =  8.04E-04,  avg # of iterations =  1.0

     total cpu time spent up to now is        0.4 secs

     total energy              =     -15.84813700 Ry
     Harris-Foulkes estimate   =     -15.84845534 Ry
     estimated scf accuracy    <       0.00224894 Ry

     iteration #  3     ecut=    45.00 Ry     beta=0.70
     Davidson diagonalization with overlap
     ethr =  2.81E-05,  avg # of iterations =  2.1

     total cpu time spent up to now is        0.4 secs

     total energy              =     -15.84853786 Ry
     Harris-Foulkes estimate   =     -15.84856777 Ry
     estimated scf accuracy    <       0.00007337 Ry

     iteration #  4     ecut=    45.00 Ry     beta=0.70
     Davidson diagonalization with overlap
     ethr =  9.17E-07,  avg # of iterations =  2.2

     total cpu time spent up to now is        0.5 secs

     total energy              =     -15.84855818 Ry
     Harris-Foulkes estimate   =     -15.84856194 Ry
     estimated scf accuracy    <       0.00000799 Ry

     iteration #  5     ecut=    45.00 Ry     beta=0.70
     Davidson diagonalization with overlap
     ethr =  9.99E-08,  avg # of iterations =  2.1

     total cpu time spent up to now is        0.6 secs

     total energy              =     -15.84855950 Ry
     Harris-Foulkes estimate   =     -15.84855955 Ry
     estimated scf accuracy    <       0.00000013 Ry

     iteration #  6     ecut=    45.00 Ry     beta=0.70
     Davidson diagonalization with overlap
     ethr =  1.60E-09,  avg # of iterations =  2.4

     total cpu time spent up to now is        0.7 secs

     End of self-consistent calculation

          k = 0.0000 0.0000 0.0000 (  1363 PWs)   bands (ev):

    -5.8091   6.2470   6.2470   6.2470

          k =-0.2000 0.2000-0.2000 (  1363 PWs)   bands (ev):

    -5.2829   3.2196   5.6579   5.6579

          k =-0.4000 0.4000-0.4000 (  1362 PWs)   bands (ev):

    -3.8877  -0.0975   5.1042   5.1042

          k = 0.0000 0.4000 0.0000 (  1351 PWs)   bands (ev):

    -5.1024   3.6522   4.7282   4.7282

          k =-0.2000 0.6000-0.2000 (  1349 PWs)   bands (ev):

    -3.9388   0.9178   3.5756   4.2125

          k = 0.6000-0.2000 0.6000 (  1360 PWs)   bands (ev):

    -3.0247  -0.5165   2.7487   4.5031

          k = 0.4000 0.0000 0.4000 (  1358 PWs)   bands (ev):

    -4.4359   1.7660   3.1723   5.3903

          k = 0.0000 0.8000 0.0000 (  1351 PWs)   bands (ev):

    -3.0515   0.0690   3.5000   3.5000

          k = 0.8000 0.0000 0.8000 (  1348 PWs)   bands (ev):

    -1.8116  -1.2149   2.0734   3.6218

          k = 0.6000-0.2000 1.0000 (  1356 PWs)   bands (ev):

    -2.5953  -0.3185   2.1647   3.1776

     highest occupied level (ev):     6.2470

!    total energy              =     -15.84855953 Ry
     Harris-Foulkes estimate   =     -15.84855953 Ry
     estimated scf accuracy    <          2.4E-09 Ry

     The total energy is the sum of the following terms:

     one-electron contribution =       4.78360760 Ry
     hartree contribution      =       1.08862024 Ry
     xc contribution           =      -4.82102879 Ry
     ewald contribution        =     -16.89975859 Ry

     convergence has been achieved in   6 iterations

     Forces acting on atoms (Ry/au):

     atom    1 type  1   force =     0.00000000   -0.00000000   -0.00000000
     atom    2 type  1   force =    -0.00000000   -0.00000000    0.00000000

     Total force =     0.000000     Total SCF correction =     0.000000


     entering subroutine stress ...

          total   stress  (Ry/bohr**3)                   (kbar)     P=    3.71
   0.00002524  -0.00000000   0.00000000          3.71     -0.00      0.00
  -0.00000000   0.00002524   0.00000000         -0.00      3.71      0.00
   0.00000000   0.00000000   0.00002524          0.00      0.00      3.71


     Writing output data file silicon.save

     init_run     :      0.13s CPU      0.15s WALL (       1 calls)
     electrons    :      0.50s CPU      0.51s WALL (       1 calls)
     forces       :      0.02s CPU      0.02s WALL (       1 calls)
     stress       :      0.05s CPU      0.06s WALL (       1 calls)

     Called by init_run:
     wfcinit      :      0.06s CPU      0.07s WALL (       1 calls)
     potinit      :      0.00s CPU      0.01s WALL (       1 calls)

     Called by electrons:
     c_bands      :      0.37s CPU      0.37s WALL (       7 calls)
     sum_band     :      0.11s CPU      0.11s WALL (       7 calls)
     v_of_rho     :      0.02s CPU      0.02s WALL (       7 calls)
     mix_rho      :      0.00s CPU      0.01s WALL (       7 calls)

     Called by c_bands:
     init_us_2    :      0.05s CPU      0.03s WALL (     170 calls)
     cegterg      :      0.35s CPU      0.35s WALL (      70 calls)

     Called by sum_band:

     Called by *egterg:
     h_psi        :      0.35s CPU      0.34s WALL (     208 calls)
     g_psi        :      0.00s CPU      0.00s WALL (     128 calls)
     cdiaghg      :      0.01s CPU      0.01s WALL (     188 calls)

     Called by h_psi:
     h_psi:pot    :      0.34s CPU      0.34s WALL (     208 calls)
     h_psi:calbec :      0.01s CPU      0.01s WALL (     208 calls)
     vloc_psi     :      0.32s CPU      0.31s WALL (     208 calls)
     add_vuspsi   :      0.02s CPU      0.01s WALL (     208 calls)

     General routines
     calbec       :      0.01s CPU      0.02s WALL (     258 calls)
     fft          :      0.00s CPU      0.01s WALL (      34 calls)
     fftw         :      0.25s CPU      0.29s WALL (    1946 calls)
     davcio       :      0.00s CPU      0.00s WALL (      10 calls)

     Parallel routines
     fft_scatter  :      0.05s CPU      0.07s WALL (    1980 calls)

     PWSCF        :     0.75s CPU         0.78s WALL


   This run was terminated on:  12:52:25  22Jun2018            

=------------------------------------------------------------------------------=
   JOB DONE.
=------------------------------------------------------------------------------=
