
     Program PWSCF v.6.0 (svn rev. 13079) starts on 22Jun2018 at 12:52: 7 

     This program is part of the open-source Quantum ESPRESSO suite
     for quantum simulation of materials; please cite
         "P. Giannozzi et al., J. Phys.:Condens. Matter 21 395502 (2009);
          URL http://www.quantum-espresso.org", 
     in publications or presentations arising from this work. More details at
     http://www.quantum-espresso.org/quote

     Parallel version (MPI), running on     1 processors
     Waiting for input...
     Reading input from standard input

     Current dimensions of program PWSCF are:
     Max number of different atomic species (ntypx) = 10
     Max number of k-points (npk) =  40000
     Max angular momentum in pseudopotentials (lmaxx) =  3

     Subspace diagonalization in iterative solution of the eigenvalue problem:
     a serial algorithm will be used


     G-vector sticks info
     --------------------
     sticks:   dense  smooth     PW     G-vecs:    dense   smooth      PW
     Sum         265     265     91                 2891     2891     561



     bravais-lattice index     =            2
     lattice parameter (alat)  =      10.2000  a.u.
     unit-cell volume          =     265.3020 (a.u.)^3
     number of atoms/cell      =            2
     number of atomic types    =            1
     number of electrons       =         8.00
     number of Kohn-Sham states=            4
     kinetic-energy cutoff     =      18.7920  Ry
     charge density cutoff     =      75.1680  Ry
     convergence threshold     =      1.0E-08
     mixing beta               =       0.7000
     number of iterations used =            8  plain     mixing
     Exchange-correlation      =  SLA  PZ   NOGX NOGC ( 1  1  0  0 0 0)

     celldm(1)=  10.200000  celldm(2)=   0.000000  celldm(3)=   0.000000
     celldm(4)=   0.000000  celldm(5)=   0.000000  celldm(6)=   0.000000

     crystal axes: (cart. coord. in units of alat)
               a(1) = (  -0.500000   0.000000   0.500000 )  
               a(2) = (   0.000000   0.500000   0.500000 )  
               a(3) = (  -0.500000   0.500000   0.000000 )  

     reciprocal axes: (cart. coord. in units 2 pi/alat)
               b(1) = ( -1.000000 -1.000000  1.000000 )  
               b(2) = (  1.000000  1.000000  1.000000 )  
               b(3) = ( -1.000000  1.000000 -1.000000 )  


     PseudoPot. # 1 for Si read from file:
     ../../../PP/Si.pz-vbc.UPF
     MD5 check sum: 6dfa03ddd5817404712e03e4d12deb78
     Pseudo is Norm-conserving, Zval =  4.0
     Generated by new atomic code, or converted to UPF format
     Using radial grid of  431 points,  2 beta functions with: 
                l(1) =   0
                l(2) =   1

     atomic species   valence    mass     pseudopotential
        Si             4.00    28.08600     Si( 1.00)

     48 Sym. Ops., with inversion, found (24 have fractional translation)



   Cartesian axes

     site n.     atom                  positions (alat units)
         1           Si  tau(   1) = (   0.0000000   0.0000000   0.0000000  )
         2           Si  tau(   2) = (  -0.2500000   0.2500000   0.2500000  )

     number of k points=    10
                       cart. coord. in units 2pi/alat
        k(    1) = (   0.0000000   0.0000000   0.0000000), wk =   0.0160000
        k(    2) = (  -0.2000000   0.2000000  -0.2000000), wk =   0.1280000
        k(    3) = (  -0.4000000   0.4000000  -0.4000000), wk =   0.1280000
        k(    4) = (   0.0000000   0.4000000   0.0000000), wk =   0.0960000
        k(    5) = (  -0.2000000   0.6000000  -0.2000000), wk =   0.3840000
        k(    6) = (   0.6000000  -0.2000000   0.6000000), wk =   0.3840000
        k(    7) = (   0.4000000   0.0000000   0.4000000), wk =   0.1920000
        k(    8) = (   0.0000000   0.8000000   0.0000000), wk =   0.0960000
        k(    9) = (   0.8000000   0.0000000   0.8000000), wk =   0.1920000
        k(   10) = (   0.6000000  -0.2000000   1.0000000), wk =   0.3840000

     Dense  grid:     2891 G-vectors     FFT dimensions: (  20,  20,  20)

     Estimated max dynamical RAM per process >       2.09Mb

     Initial potential from superposition of free atoms

     starting charge    7.99901, renormalised to    8.00000
     Starting wfc are    8 randomized atomic wfcs

     total cpu time spent up to now is        0.1 secs

     per-process dynamical memory:     5.5 Mb

     Self-consistent Calculation

     iteration #  1     ecut=    18.79 Ry     beta=0.70
     Davidson diagonalization with overlap
     ethr =  1.00E-02,  avg # of iterations =  2.0

     Threshold (ethr) on eigenvalues was too large:
     Diagonalizing with lowered threshold

     Davidson diagonalization with overlap
     ethr =  8.07E-04,  avg # of iterations =  1.0

     total cpu time spent up to now is        0.1 secs

     total energy              =     -15.83761943 Ry
     Harris-Foulkes estimate   =     -15.85955982 Ry
     estimated scf accuracy    <       0.06387414 Ry

     iteration #  2     ecut=    18.79 Ry     beta=0.70
     Davidson diagonalization with overlap
     ethr =  7.98E-04,  avg # of iterations =  1.0

     total cpu time spent up to now is        0.1 secs

     total energy              =     -15.84077859 Ry
     Harris-Foulkes estimate   =     -15.84110217 Ry
     estimated scf accuracy    <       0.00224324 Ry

     iteration #  3     ecut=    18.79 Ry     beta=0.70
     Davidson diagonalization with overlap
     ethr =  2.80E-05,  avg # of iterations =  2.0

     total cpu time spent up to now is        0.2 secs

     total energy              =     -15.84117302 Ry
     Harris-Foulkes estimate   =     -15.84120258 Ry
     estimated scf accuracy    <       0.00006969 Ry

     iteration #  4     ecut=    18.79 Ry     beta=0.70
     Davidson diagonalization with overlap
     ethr =  8.71E-07,  avg # of iterations =  2.1

     total cpu time spent up to now is        0.2 secs

     total energy              =     -15.84118859 Ry
     Harris-Foulkes estimate   =     -15.84119156 Ry
     estimated scf accuracy    <       0.00000642 Ry

     iteration #  5     ecut=    18.79 Ry     beta=0.70
     Davidson diagonalization with overlap
     ethr =  8.02E-08,  avg # of iterations =  2.2

     total cpu time spent up to now is        0.2 secs

     total energy              =     -15.84118961 Ry
     Harris-Foulkes estimate   =     -15.84118965 Ry
     estimated scf accuracy    <       0.00000008 Ry

     iteration #  6     ecut=    18.79 Ry     beta=0.70
     Davidson diagonalization with overlap
     ethr =  9.53E-10,  avg # of iterations =  2.6

     total cpu time spent up to now is        0.2 secs

     End of self-consistent calculation

          k = 0.0000 0.0000 0.0000 (   339 PWs)   bands (ev):

    -5.7995   6.2703   6.2703   6.2703

          k =-0.2000 0.2000-0.2000 (   359 PWs)   bands (ev):

    -5.2743   3.2313   5.6751   5.6751

          k =-0.4000 0.4000-0.4000 (   362 PWs)   bands (ev):

    -3.8785  -0.0898   5.1170   5.1170

          k = 0.0000 0.4000 0.0000 (   355 PWs)   bands (ev):

    -5.0930   3.6685   4.7408   4.7408

          k =-0.2000 0.6000-0.2000 (   362 PWs)   bands (ev):

    -3.9304   0.9277   3.5872   4.2224

          k = 0.6000-0.2000 0.6000 (   370 PWs)   bands (ev):

    -3.0155  -0.5100   2.7575   4.5132

          k = 0.4000 0.0000 0.4000 (   361 PWs)   bands (ev):

    -4.4274   1.7774   3.1812   5.4042

          k = 0.0000 0.8000 0.0000 (   359 PWs)   bands (ev):

    -3.0409   0.0806   3.5073   3.5073

          k = 0.8000 0.0000 0.8000 (   369 PWs)   bands (ev):

    -1.8014  -1.2056   2.0786   3.6292

          k = 0.6000-0.2000 1.0000 (   373 PWs)   bands (ev):

    -2.5861  -0.3088   2.1705   3.1851

     highest occupied level (ev):     6.2703

!    total energy              =     -15.84118964 Ry
     Harris-Foulkes estimate   =     -15.84118964 Ry
     estimated scf accuracy    <          1.6E-09 Ry

     The total energy is the sum of the following terms:

     one-electron contribution =       4.79142320 Ry
     hartree contribution      =       1.08636404 Ry
     xc contribution           =      -4.81921826 Ry
     ewald contribution        =     -16.89975862 Ry

     convergence has been achieved in   6 iterations

     Forces acting on atoms (Ry/au):

     atom    1 type  1   force =     0.00000000    0.00000000    0.00000000
     atom    2 type  1   force =     0.00000000    0.00000000    0.00000000

     Total force =     0.000000     Total SCF correction =     0.000000


     entering subroutine stress ...

          total   stress  (Ry/bohr**3)                   (kbar)     P=   -5.94
  -0.00004037   0.00000000   0.00000000         -5.94      0.00      0.00
   0.00000000  -0.00004037  -0.00000000          0.00     -5.94     -0.00
   0.00000000  -0.00000000  -0.00004037          0.00     -0.00     -5.94


     Writing output data file silicon.save

     init_run     :      0.05s CPU      0.06s WALL (       1 calls)
     electrons    :      0.14s CPU      0.16s WALL (       1 calls)
     forces       :      0.01s CPU      0.01s WALL (       1 calls)
     stress       :      0.02s CPU      0.02s WALL (       1 calls)

     Called by init_run:
     wfcinit      :      0.02s CPU      0.02s WALL (       1 calls)
     potinit      :      0.00s CPU      0.00s WALL (       1 calls)

     Called by electrons:
     c_bands      :      0.10s CPU      0.11s WALL (       7 calls)
     sum_band     :      0.03s CPU      0.04s WALL (       7 calls)
     v_of_rho     :      0.01s CPU      0.01s WALL (       7 calls)
     mix_rho      :      0.00s CPU      0.00s WALL (       7 calls)

     Called by c_bands:
     init_us_2    :      0.01s CPU      0.01s WALL (     170 calls)
     cegterg      :      0.10s CPU      0.11s WALL (      70 calls)

     Called by sum_band:

     Called by *egterg:
     h_psi        :      0.08s CPU      0.09s WALL (     209 calls)
     g_psi        :      0.00s CPU      0.00s WALL (     129 calls)
     cdiaghg      :      0.00s CPU      0.01s WALL (     189 calls)

     Called by h_psi:
     h_psi:pot    :      0.08s CPU      0.09s WALL (     209 calls)
     h_psi:calbec :      0.01s CPU      0.01s WALL (     209 calls)
     vloc_psi     :      0.07s CPU      0.08s WALL (     209 calls)
     add_vuspsi   :      0.00s CPU      0.00s WALL (     209 calls)

     General routines
     calbec       :      0.01s CPU      0.01s WALL (     259 calls)
     fft          :      0.00s CPU      0.00s WALL (      34 calls)
     fftw         :      0.08s CPU      0.08s WALL (    1936 calls)
     davcio       :      0.00s CPU      0.00s WALL (      10 calls)

     Parallel routines
     fft_scatter  :      0.01s CPU      0.01s WALL (    1970 calls)

     PWSCF        :     0.27s CPU         0.29s WALL


   This run was terminated on:  12:52: 7  22Jun2018            

=------------------------------------------------------------------------------=
   JOB DONE.
=------------------------------------------------------------------------------=
