
     Program PWSCF v.6.0 (svn rev. 13079) starts on 26Mar2018 at 16:17:22 

     This program is part of the open-source Quantum ESPRESSO suite
     for quantum simulation of materials; please cite
         "P. Giannozzi et al., J. Phys.:Condens. Matter 21 395502 (2009);
          URL http://www.quantum-espresso.org", 
     in publications or presentations arising from this work. More details at
     http://www.quantum-espresso.org/quote

     Parallel version (MPI), running on     1 processors
     Waiting for input...
     Reading input from standard input

     Current dimensions of program PWSCF are:
     Max number of different atomic species (ntypx) = 10
     Max number of k-points (npk) =  40000
     Max angular momentum in pseudopotentials (lmaxx) =  3

     Subspace diagonalization in iterative solution of the eigenvalue problem:
     a serial algorithm will be used


     G-vector sticks info
     --------------------
     sticks:   dense  smooth     PW     G-vecs:    dense   smooth      PW
     Sum         253     253     85                 2637     2637     531



     bravais-lattice index     =            2
     lattice parameter (alat)  =      10.0000  a.u.
     unit-cell volume          =     250.0000 (a.u.)^3
     number of atoms/cell      =            2
     number of atomic types    =            1
     number of electrons       =         8.00
     number of Kohn-Sham states=            4
     kinetic-energy cutoff     =      18.0000  Ry
     charge density cutoff     =      72.0000  Ry
     convergence threshold     =      1.0E-08
     mixing beta               =       0.7000
     number of iterations used =            8  plain     mixing
     Exchange-correlation      =  SLA  PZ   NOGX NOGC ( 1  1  0  0 0 0)

     celldm(1)=  10.000000  celldm(2)=   0.000000  celldm(3)=   0.000000
     celldm(4)=   0.000000  celldm(5)=   0.000000  celldm(6)=   0.000000

     crystal axes: (cart. coord. in units of alat)
               a(1) = (  -0.500000   0.000000   0.500000 )  
               a(2) = (   0.000000   0.500000   0.500000 )  
               a(3) = (  -0.500000   0.500000   0.000000 )  

     reciprocal axes: (cart. coord. in units 2 pi/alat)
               b(1) = ( -1.000000 -1.000000  1.000000 )  
               b(2) = (  1.000000  1.000000  1.000000 )  
               b(3) = ( -1.000000  1.000000 -1.000000 )  


     PseudoPot. # 1 for Si read from file:
     ../PP/Si.pz-vbc.UPF
     MD5 check sum: 6dfa03ddd5817404712e03e4d12deb78
     Pseudo is Norm-conserving, Zval =  4.0
     Generated by new atomic code, or converted to UPF format
     Using radial grid of  431 points,  2 beta functions with: 
                l(1) =   0
                l(2) =   1

     atomic species   valence    mass     pseudopotential
        Si             4.00    28.08600     Si( 1.00)

     48 Sym. Ops., with inversion, found (24 have fractional translation)



   Cartesian axes

     site n.     atom                  positions (alat units)
         1           Si  tau(   1) = (   0.0000000   0.0000000   0.0000000  )
         2           Si  tau(   2) = (  -0.2500000   0.2500000   0.2500000  )

     number of k points=     8
                       cart. coord. in units 2pi/alat
        k(    1) = (   0.0000000   0.0000000   0.0000000), wk =   0.0312500
        k(    2) = (  -0.2500000   0.2500000  -0.2500000), wk =   0.2500000
        k(    3) = (   0.5000000  -0.5000000   0.5000000), wk =   0.1250000
        k(    4) = (   0.0000000   0.5000000   0.0000000), wk =   0.1875000
        k(    5) = (   0.7500000  -0.2500000   0.7500000), wk =   0.7500000
        k(    6) = (   0.5000000   0.0000000   0.5000000), wk =   0.3750000
        k(    7) = (   0.0000000  -1.0000000   0.0000000), wk =   0.0937500
        k(    8) = (  -0.5000000  -1.0000000   0.0000000), wk =   0.1875000

     Dense  grid:     2637 G-vectors     FFT dimensions: (  20,  20,  20)

     Estimated max dynamical RAM per process >       1.91Mb

     Initial potential from superposition of free atoms

     starting charge    7.99901, renormalised to    8.00000
     Starting wfc are    8 randomized atomic wfcs

     total cpu time spent up to now is        0.1 secs

     per-process dynamical memory:     5.5 Mb

     Self-consistent Calculation

     iteration #  1     ecut=    18.00 Ry     beta=0.70
     Davidson diagonalization with overlap
     ethr =  1.00E-02,  avg # of iterations =  2.0

     Threshold (ethr) on eigenvalues was too large:
     Diagonalizing with lowered threshold

     Davidson diagonalization with overlap
     ethr =  9.39E-04,  avg # of iterations =  1.0

     total cpu time spent up to now is        0.1 secs

     total energy              =     -15.82175210 Ry
     Harris-Foulkes estimate   =     -15.84882164 Ry
     estimated scf accuracy    <       0.07450944 Ry

     iteration #  2     ecut=    18.00 Ry     beta=0.70
     Davidson diagonalization with overlap
     ethr =  9.31E-04,  avg # of iterations =  1.1

     total cpu time spent up to now is        0.1 secs

     total energy              =     -15.82576613 Ry
     Harris-Foulkes estimate   =     -15.82610384 Ry
     estimated scf accuracy    <       0.00239218 Ry

     iteration #  3     ecut=    18.00 Ry     beta=0.70
     Davidson diagonalization with overlap
     ethr =  2.99E-05,  avg # of iterations =  1.9

     total cpu time spent up to now is        0.2 secs

     total energy              =     -15.82619616 Ry
     Harris-Foulkes estimate   =     -15.82622575 Ry
     estimated scf accuracy    <       0.00007642 Ry

     iteration #  4     ecut=    18.00 Ry     beta=0.70
     Davidson diagonalization with overlap
     ethr =  9.55E-07,  avg # of iterations =  2.0

     total cpu time spent up to now is        0.2 secs

     total energy              =     -15.82621309 Ry
     Harris-Foulkes estimate   =     -15.82621598 Ry
     estimated scf accuracy    <       0.00000635 Ry

     iteration #  5     ecut=    18.00 Ry     beta=0.70
     Davidson diagonalization with overlap
     ethr =  7.94E-08,  avg # of iterations =  2.2

     total cpu time spent up to now is        0.2 secs

     total energy              =     -15.82621411 Ry
     Harris-Foulkes estimate   =     -15.82621415 Ry
     estimated scf accuracy    <       0.00000009 Ry

     iteration #  6     ecut=    18.00 Ry     beta=0.70
     Davidson diagonalization with overlap
     ethr =  1.09E-09,  avg # of iterations =  2.4

     total cpu time spent up to now is        0.2 secs

     End of self-consistent calculation

          k = 0.0000 0.0000 0.0000 (   331 PWs)   bands (ev):

    -5.5625   6.9383   6.9383   6.9383

          k =-0.2500 0.2500-0.2500 (   314 PWs)   bands (ev):

    -4.7032   2.8454   6.1195   6.1195

          k = 0.5000-0.5000 0.5000 (   332 PWs)   bands (ev):

    -3.0081  -0.4494   5.6578   5.6578

          k = 0.0000 0.5000 0.0000 (   311 PWs)   bands (ev):

    -4.4027   3.4494   4.8798   4.8798

          k = 0.7500-0.2500 0.7500 (   318 PWs)   bands (ev):

    -2.6249   0.3358   3.1120   4.5485

          k = 0.5000 0.0000 0.5000 (   327 PWs)   bands (ev):

    -3.3590   1.3146   2.8342   5.5068

          k = 0.0000-1.0000 0.0000 (   326 PWs)   bands (ev):

    -1.1215  -1.1215   3.8480   3.8480

          k =-0.5000-1.0000 0.0000 (   328 PWs)   bands (ev):

    -0.9110  -0.9110   2.6929   2.6929

     highest occupied level (ev):     6.9383

!    total energy              =     -15.82621413 Ry
     Harris-Foulkes estimate   =     -15.82621413 Ry
     estimated scf accuracy    <          1.4E-09 Ry

     The total energy is the sum of the following terms:

     one-electron contribution =       5.25048776 Ry
     hartree contribution      =       1.05122308 Ry
     xc contribution           =      -4.89017103 Ry
     ewald contribution        =     -17.23775393 Ry

     convergence has been achieved in   6 iterations


     entering subroutine stress ...

          total   stress  (Ry/bohr**3)                   (kbar)     P=   60.85
   0.00041365   0.00000000   0.00000000         60.85      0.00      0.00
   0.00000000   0.00041365  -0.00000000          0.00     60.85     -0.00
   0.00000000   0.00000000   0.00041365          0.00      0.00     60.85


     Writing output data file silicon.save

     init_run     :      0.06s CPU      0.05s WALL (       1 calls)
     electrons    :      0.12s CPU      0.13s WALL (       1 calls)
     stress       :      0.01s CPU      0.01s WALL (       1 calls)

     Called by init_run:
     wfcinit      :      0.02s CPU      0.02s WALL (       1 calls)
     potinit      :      0.00s CPU      0.00s WALL (       1 calls)

     Called by electrons:
     c_bands      :      0.08s CPU      0.09s WALL (       7 calls)
     sum_band     :      0.03s CPU      0.03s WALL (       7 calls)
     v_of_rho     :      0.02s CPU      0.01s WALL (       7 calls)
     mix_rho      :      0.00s CPU      0.00s WALL (       7 calls)

     Called by c_bands:
     init_us_2    :      0.00s CPU      0.01s WALL (     128 calls)
     cegterg      :      0.07s CPU      0.08s WALL (      56 calls)

     Called by sum_band:

     Called by *egterg:
     h_psi        :      0.07s CPU      0.08s WALL (     165 calls)
     g_psi        :      0.00s CPU      0.00s WALL (     101 calls)
     cdiaghg      :      0.00s CPU      0.01s WALL (     149 calls)

     Called by h_psi:
     h_psi:pot    :      0.07s CPU      0.07s WALL (     165 calls)
     h_psi:calbec :      0.00s CPU      0.00s WALL (     165 calls)
     vloc_psi     :      0.06s CPU      0.07s WALL (     165 calls)
     add_vuspsi   :      0.00s CPU      0.00s WALL (     165 calls)

     General routines
     calbec       :      0.00s CPU      0.00s WALL (     173 calls)
     fft          :      0.00s CPU      0.00s WALL (      32 calls)
     fftw         :      0.07s CPU      0.06s WALL (    1544 calls)
     davcio       :      0.00s CPU      0.00s WALL (       8 calls)

     Parallel routines
     fft_scatter  :      0.01s CPU      0.01s WALL (    1576 calls)

     PWSCF        :     0.27s CPU         0.30s WALL


   This run was terminated on:  16:17:22  26Mar2018            

=------------------------------------------------------------------------------=
   JOB DONE.
=------------------------------------------------------------------------------=
