
     Program PWSCF v.6.0 (svn rev. 13079) starts on 16Apr2018 at 16: 0:36 

     This program is part of the open-source Quantum ESPRESSO suite
     for quantum simulation of materials; please cite
         "P. Giannozzi et al., J. Phys.:Condens. Matter 21 395502 (2009);
          URL http://www.quantum-espresso.org", 
     in publications or presentations arising from this work. More details at
     http://www.quantum-espresso.org/quote

     Parallel version (MPI), running on     1 processors
     Waiting for input...
     Reading input from standard input

     Current dimensions of program PWSCF are:
     Max number of different atomic species (ntypx) = 10
     Max number of k-points (npk) =  40000
     Max angular momentum in pseudopotentials (lmaxx) =  3

     Subspace diagonalization in iterative solution of the eigenvalue problem:
     a serial algorithm will be used


     G-vector sticks info
     --------------------
     sticks:   dense  smooth     PW     G-vecs:    dense   smooth      PW
     Sum         583     583    187                 9185     9185    1591



     bravais-lattice index     =            2
     lattice parameter (alat)  =      10.2000  a.u.
     unit-cell volume          =     265.3020 (a.u.)^3
     number of atoms/cell      =            2
     number of atomic types    =            1
     number of electrons       =         8.00
     number of Kohn-Sham states=            4
     kinetic-energy cutoff     =      40.1740  Ry
     charge density cutoff     =     160.6960  Ry
     convergence threshold     =      1.0E-08
     mixing beta               =       0.7000
     number of iterations used =            8  plain     mixing
     Exchange-correlation      =  SLA  PZ   NOGX NOGC ( 1  1  0  0 0 0)

     celldm(1)=  10.200000  celldm(2)=   0.000000  celldm(3)=   0.000000
     celldm(4)=   0.000000  celldm(5)=   0.000000  celldm(6)=   0.000000

     crystal axes: (cart. coord. in units of alat)
               a(1) = (  -0.500000   0.000000   0.500000 )  
               a(2) = (   0.000000   0.500000   0.500000 )  
               a(3) = (  -0.500000   0.500000   0.000000 )  

     reciprocal axes: (cart. coord. in units 2 pi/alat)
               b(1) = ( -1.000000 -1.000000  1.000000 )  
               b(2) = (  1.000000  1.000000  1.000000 )  
               b(3) = ( -1.000000  1.000000 -1.000000 )  


     PseudoPot. # 1 for Si read from file:
     ../../../PP/Si.pz-vbc.UPF
     MD5 check sum: 6dfa03ddd5817404712e03e4d12deb78
     Pseudo is Norm-conserving, Zval =  4.0
     Generated by new atomic code, or converted to UPF format
     Using radial grid of  431 points,  2 beta functions with: 
                l(1) =   0
                l(2) =   1

     atomic species   valence    mass     pseudopotential
        Si             4.00    28.08600     Si( 1.00)

     24 Sym. Ops. (no inversion) found
          (note: 24 additional sym.ops. were found but ignored
           their fractional translations are incommensurate with FFT grid)


   Cartesian axes

     site n.     atom                  positions (alat units)
         1           Si  tau(   1) = (   0.0000000   0.0000000   0.0000000  )
         2           Si  tau(   2) = (  -0.2500000   0.2500000   0.2500000  )

     number of k points=    10
                       cart. coord. in units 2pi/alat
        k(    1) = (   0.0000000   0.0000000   0.0000000), wk =   0.0160000
        k(    2) = (  -0.2000000   0.2000000  -0.2000000), wk =   0.1280000
        k(    3) = (  -0.4000000   0.4000000  -0.4000000), wk =   0.1280000
        k(    4) = (   0.0000000   0.4000000   0.0000000), wk =   0.0960000
        k(    5) = (  -0.2000000   0.6000000  -0.2000000), wk =   0.3840000
        k(    6) = (   0.6000000  -0.2000000   0.6000000), wk =   0.3840000
        k(    7) = (   0.4000000   0.0000000   0.4000000), wk =   0.1920000
        k(    8) = (   0.0000000   0.8000000   0.0000000), wk =   0.0960000
        k(    9) = (   0.8000000   0.0000000   0.8000000), wk =   0.1920000
        k(   10) = (   0.6000000  -0.2000000   1.0000000), wk =   0.3840000

     Dense  grid:     9185 G-vectors     FFT dimensions: (  30,  30,  30)

     Estimated max dynamical RAM per process >       6.73Mb

     Initial potential from superposition of free atoms

     starting charge    7.99901, renormalised to    8.00000
     Starting wfc are    8 randomized atomic wfcs

     total cpu time spent up to now is        0.2 secs

     per-process dynamical memory:     9.3 Mb

     Self-consistent Calculation

     iteration #  1     ecut=    40.17 Ry     beta=0.70
     Davidson diagonalization with overlap
     ethr =  1.00E-02,  avg # of iterations =  2.0

     Threshold (ethr) on eigenvalues was too large:
     Diagonalizing with lowered threshold

     Davidson diagonalization with overlap
     ethr =  8.25E-04,  avg # of iterations =  1.0

     total cpu time spent up to now is        0.5 secs

     total energy              =     -15.84476210 Ry
     Harris-Foulkes estimate   =     -15.86679211 Ry
     estimated scf accuracy    <       0.06436492 Ry

     iteration #  2     ecut=    40.17 Ry     beta=0.70
     Davidson diagonalization with overlap
     ethr =  8.05E-04,  avg # of iterations =  1.0

     total cpu time spent up to now is        0.6 secs

     total energy              =     -15.84793753 Ry
     Harris-Foulkes estimate   =     -15.84825517 Ry
     estimated scf accuracy    <       0.00224869 Ry

     iteration #  3     ecut=    40.17 Ry     beta=0.70
     Davidson diagonalization with overlap
     ethr =  2.81E-05,  avg # of iterations =  2.1

     total cpu time spent up to now is        0.8 secs

     total energy              =     -15.84834002 Ry
     Harris-Foulkes estimate   =     -15.84836981 Ry
     estimated scf accuracy    <       0.00007313 Ry

     iteration #  4     ecut=    40.17 Ry     beta=0.70
     Davidson diagonalization with overlap
     ethr =  9.14E-07,  avg # of iterations =  2.2

     total cpu time spent up to now is        0.9 secs

     total energy              =     -15.84836001 Ry
     Harris-Foulkes estimate   =     -15.84836374 Ry
     estimated scf accuracy    <       0.00000793 Ry

     iteration #  5     ecut=    40.17 Ry     beta=0.70
     Davidson diagonalization with overlap
     ethr =  9.91E-08,  avg # of iterations =  2.2

     total cpu time spent up to now is        1.1 secs

     total energy              =     -15.84836131 Ry
     Harris-Foulkes estimate   =     -15.84836137 Ry
     estimated scf accuracy    <       0.00000013 Ry

     iteration #  6     ecut=    40.17 Ry     beta=0.70
     Davidson diagonalization with overlap
     ethr =  1.62E-09,  avg # of iterations =  2.4

     total cpu time spent up to now is        1.3 secs

     End of self-consistent calculation

          k = 0.0000 0.0000 0.0000 (  1139 PWs)   bands (ev):

    -5.8090   6.2470   6.2470   6.2470

          k =-0.2000 0.2000-0.2000 (  1152 PWs)   bands (ev):

    -5.2826   3.2200   5.6579   5.6579

          k =-0.4000 0.4000-0.4000 (  1149 PWs)   bands (ev):

    -3.8873  -0.0972   5.1042   5.1042

          k = 0.0000 0.4000 0.0000 (  1146 PWs)   bands (ev):

    -5.1021   3.6528   4.7281   4.7281

          k =-0.2000 0.6000-0.2000 (  1130 PWs)   bands (ev):

    -3.9384   0.9183   3.5757   4.2125

          k = 0.6000-0.2000 0.6000 (  1141 PWs)   bands (ev):

    -3.0243  -0.5162   2.7489   4.5030

          k = 0.4000 0.0000 0.4000 (  1139 PWs)   bands (ev):

    -4.4355   1.7665   3.1724   5.3903

          k = 0.0000 0.8000 0.0000 (  1134 PWs)   bands (ev):

    -3.0511   0.0696   3.4999   3.4999

          k = 0.8000 0.0000 0.8000 (  1144 PWs)   bands (ev):

    -1.8112  -1.2145   2.0733   3.6217

          k = 0.6000-0.2000 1.0000 (  1139 PWs)   bands (ev):

    -2.5948  -0.3180   2.1647   3.1776

     highest occupied level (ev):     6.2470

!    total energy              =     -15.84836135 Ry
     Harris-Foulkes estimate   =     -15.84836135 Ry
     estimated scf accuracy    <          2.1E-09 Ry

     The total energy is the sum of the following terms:

     one-electron contribution =       4.78389657 Ry
     hartree contribution      =       1.08854689 Ry
     xc contribution           =      -4.82104621 Ry
     ewald contribution        =     -16.89975860 Ry

     convergence has been achieved in   6 iterations

     Forces acting on atoms (Ry/au):

     atom    1 type  1   force =    -0.00000000   -0.00000000    0.00000000
     atom    2 type  1   force =     0.00000000    0.00000000    0.00000000

     Total force =     0.000000     Total SCF correction =     0.000000


     entering subroutine stress ...

          total   stress  (Ry/bohr**3)                   (kbar)     P=    3.38
   0.00002297   0.00000000   0.00000000          3.38      0.00      0.00
   0.00000000   0.00002297  -0.00000000          0.00      3.38     -0.00
   0.00000000  -0.00000000   0.00002297          0.00     -0.00      3.38


     Writing output data file silicon.save

     init_run     :      0.17s CPU      0.17s WALL (       1 calls)
     electrons    :      1.13s CPU      1.15s WALL (       1 calls)
     forces       :      0.02s CPU      0.02s WALL (       1 calls)
     stress       :      0.05s CPU      0.05s WALL (       1 calls)

     Called by init_run:
     wfcinit      :      0.12s CPU      0.11s WALL (       1 calls)
     potinit      :      0.01s CPU      0.01s WALL (       1 calls)

     Called by electrons:
     c_bands      :      0.91s CPU      0.93s WALL (       7 calls)
     sum_band     :      0.19s CPU      0.18s WALL (       7 calls)
     v_of_rho     :      0.02s CPU      0.02s WALL (       7 calls)
     mix_rho      :      0.00s CPU      0.01s WALL (       7 calls)

     Called by c_bands:
     init_us_2    :      0.04s CPU      0.03s WALL (     170 calls)
     cegterg      :      0.87s CPU      0.91s WALL (      70 calls)

     Called by sum_band:

     Called by *egterg:
     h_psi        :      0.94s CPU      0.96s WALL (     209 calls)
     g_psi        :      0.00s CPU      0.00s WALL (     129 calls)
     cdiaghg      :      0.00s CPU      0.01s WALL (     189 calls)

     Called by h_psi:
     h_psi:pot    :      0.93s CPU      0.96s WALL (     209 calls)
     h_psi:calbec :      0.02s CPU      0.01s WALL (     209 calls)
     vloc_psi     :      0.91s CPU      0.94s WALL (     209 calls)
     add_vuspsi   :      0.01s CPU      0.01s WALL (     209 calls)

     General routines
     calbec       :      0.01s CPU      0.01s WALL (     259 calls)
     fft          :      0.02s CPU      0.02s WALL (      34 calls)
     fftw         :      1.03s CPU      1.04s WALL (    1944 calls)
     davcio       :      0.00s CPU      0.00s WALL (      10 calls)

     Parallel routines
     fft_scatter  :      0.06s CPU      0.04s WALL (    1978 calls)

     PWSCF        :     1.43s CPU         1.50s WALL


   This run was terminated on:  16: 0:38  16Apr2018            

=------------------------------------------------------------------------------=
   JOB DONE.
=------------------------------------------------------------------------------=
