
     Program PWSCF v.6.0 (svn rev. 13079) starts on 22Jun2018 at 12:52: 7 

     This program is part of the open-source Quantum ESPRESSO suite
     for quantum simulation of materials; please cite
         "P. Giannozzi et al., J. Phys.:Condens. Matter 21 395502 (2009);
          URL http://www.quantum-espresso.org", 
     in publications or presentations arising from this work. More details at
     http://www.quantum-espresso.org/quote

     Parallel version (MPI), running on     1 processors
     Waiting for input...
     Reading input from standard input

     Current dimensions of program PWSCF are:
     Max number of different atomic species (ntypx) = 10
     Max number of k-points (npk) =  40000
     Max angular momentum in pseudopotentials (lmaxx) =  3

     Subspace diagonalization in iterative solution of the eigenvalue problem:
     a serial algorithm will be used


     G-vector sticks info
     --------------------
     sticks:   dense  smooth     PW     G-vecs:    dense   smooth      PW
     Sum         253     253     85                 2637     2637     531



     bravais-lattice index     =            2
     lattice parameter (alat)  =      10.2000  a.u.
     unit-cell volume          =     265.3020 (a.u.)^3
     number of atoms/cell      =            2
     number of atomic types    =            1
     number of electrons       =         8.00
     number of Kohn-Sham states=            4
     kinetic-energy cutoff     =      17.2500  Ry
     charge density cutoff     =      69.0000  Ry
     convergence threshold     =      1.0E-08
     mixing beta               =       0.7000
     number of iterations used =            8  plain     mixing
     Exchange-correlation      =  SLA  PZ   NOGX NOGC ( 1  1  0  0 0 0)

     celldm(1)=  10.200000  celldm(2)=   0.000000  celldm(3)=   0.000000
     celldm(4)=   0.000000  celldm(5)=   0.000000  celldm(6)=   0.000000

     crystal axes: (cart. coord. in units of alat)
               a(1) = (  -0.500000   0.000000   0.500000 )  
               a(2) = (   0.000000   0.500000   0.500000 )  
               a(3) = (  -0.500000   0.500000   0.000000 )  

     reciprocal axes: (cart. coord. in units 2 pi/alat)
               b(1) = ( -1.000000 -1.000000  1.000000 )  
               b(2) = (  1.000000  1.000000  1.000000 )  
               b(3) = ( -1.000000  1.000000 -1.000000 )  


     PseudoPot. # 1 for Si read from file:
     ../../../PP/Si.pz-vbc.UPF
     MD5 check sum: 6dfa03ddd5817404712e03e4d12deb78
     Pseudo is Norm-conserving, Zval =  4.0
     Generated by new atomic code, or converted to UPF format
     Using radial grid of  431 points,  2 beta functions with: 
                l(1) =   0
                l(2) =   1

     atomic species   valence    mass     pseudopotential
        Si             4.00    28.08600     Si( 1.00)

     48 Sym. Ops., with inversion, found (24 have fractional translation)



   Cartesian axes

     site n.     atom                  positions (alat units)
         1           Si  tau(   1) = (   0.0000000   0.0000000   0.0000000  )
         2           Si  tau(   2) = (  -0.2500000   0.2500000   0.2500000  )

     number of k points=    10
                       cart. coord. in units 2pi/alat
        k(    1) = (   0.0000000   0.0000000   0.0000000), wk =   0.0160000
        k(    2) = (  -0.2000000   0.2000000  -0.2000000), wk =   0.1280000
        k(    3) = (  -0.4000000   0.4000000  -0.4000000), wk =   0.1280000
        k(    4) = (   0.0000000   0.4000000   0.0000000), wk =   0.0960000
        k(    5) = (  -0.2000000   0.6000000  -0.2000000), wk =   0.3840000
        k(    6) = (   0.6000000  -0.2000000   0.6000000), wk =   0.3840000
        k(    7) = (   0.4000000   0.0000000   0.4000000), wk =   0.1920000
        k(    8) = (   0.0000000   0.8000000   0.0000000), wk =   0.0960000
        k(    9) = (   0.8000000   0.0000000   0.8000000), wk =   0.1920000
        k(   10) = (   0.6000000  -0.2000000   1.0000000), wk =   0.3840000

     Dense  grid:     2637 G-vectors     FFT dimensions: (  20,  20,  20)

     Estimated max dynamical RAM per process >       1.95Mb

     Initial potential from superposition of free atoms

     starting charge    7.99901, renormalised to    8.00000
     Starting wfc are    8 randomized atomic wfcs

     total cpu time spent up to now is        0.0 secs

     per-process dynamical memory:     5.5 Mb

     Self-consistent Calculation

     iteration #  1     ecut=    17.25 Ry     beta=0.70
     Davidson diagonalization with overlap
     ethr =  1.00E-02,  avg # of iterations =  2.0

     Threshold (ethr) on eigenvalues was too large:
     Diagonalizing with lowered threshold

     Davidson diagonalization with overlap
     ethr =  8.04E-04,  avg # of iterations =  1.0

     total cpu time spent up to now is        0.1 secs

     total energy              =     -15.83459976 Ry
     Harris-Foulkes estimate   =     -15.85651018 Ry
     estimated scf accuracy    <       0.06369968 Ry

     iteration #  2     ecut=    17.25 Ry     beta=0.70
     Davidson diagonalization with overlap
     ethr =  7.96E-04,  avg # of iterations =  1.0

     total cpu time spent up to now is        0.1 secs

     total energy              =     -15.83776316 Ry
     Harris-Foulkes estimate   =     -15.83808858 Ry
     estimated scf accuracy    <       0.00223627 Ry

     iteration #  3     ecut=    17.25 Ry     beta=0.70
     Davidson diagonalization with overlap
     ethr =  2.80E-05,  avg # of iterations =  2.0

     total cpu time spent up to now is        0.1 secs

     total energy              =     -15.83816256 Ry
     Harris-Foulkes estimate   =     -15.83819184 Ry
     estimated scf accuracy    <       0.00006884 Ry

     iteration #  4     ecut=    17.25 Ry     beta=0.70
     Davidson diagonalization with overlap
     ethr =  8.61E-07,  avg # of iterations =  2.0

     total cpu time spent up to now is        0.1 secs

     total energy              =     -15.83817732 Ry
     Harris-Foulkes estimate   =     -15.83818021 Ry
     estimated scf accuracy    <       0.00000638 Ry

     iteration #  5     ecut=    17.25 Ry     beta=0.70
     Davidson diagonalization with overlap
     ethr =  7.97E-08,  avg # of iterations =  2.2

     total cpu time spent up to now is        0.1 secs

     total energy              =     -15.83817834 Ry
     Harris-Foulkes estimate   =     -15.83817837 Ry
     estimated scf accuracy    <       0.00000006 Ry

     iteration #  6     ecut=    17.25 Ry     beta=0.70
     Davidson diagonalization with overlap
     ethr =  8.10E-10,  avg # of iterations =  2.6

     total cpu time spent up to now is        0.2 secs

     End of self-consistent calculation

          k = 0.0000 0.0000 0.0000 (   331 PWs)   bands (ev):

    -5.7975   6.2719   6.2719   6.2719

          k =-0.2000 0.2000-0.2000 (   320 PWs)   bands (ev):

    -5.2708   3.2369   5.6779   5.6779

          k =-0.4000 0.4000-0.4000 (   323 PWs)   bands (ev):

    -3.8717  -0.0860   5.1191   5.1191

          k = 0.0000 0.4000 0.0000 (   311 PWs)   bands (ev):

    -5.0889   3.6772   4.7428   4.7428

          k =-0.2000 0.6000-0.2000 (   324 PWs)   bands (ev):

    -3.9243   0.9319   3.5885   4.2231

          k = 0.6000-0.2000 0.6000 (   315 PWs)   bands (ev):

    -3.0055  -0.5035   2.7619   4.5154

          k = 0.4000 0.0000 0.4000 (   323 PWs)   bands (ev):

    -4.4228   1.7820   3.1839   5.4081

          k = 0.0000 0.8000 0.0000 (   322 PWs)   bands (ev):

    -3.0384   0.0868   3.5081   3.5081

          k = 0.8000 0.0000 0.8000 (   322 PWs)   bands (ev):

    -1.7954  -1.2002   2.0805   3.6308

          k = 0.6000-0.2000 1.0000 (   317 PWs)   bands (ev):

    -2.5786  -0.3006   2.1741   3.1872

     highest occupied level (ev):     6.2719

!    total energy              =     -15.83817837 Ry
     Harris-Foulkes estimate   =     -15.83817837 Ry
     estimated scf accuracy    <          1.6E-09 Ry

     The total energy is the sum of the following terms:

     one-electron contribution =       4.79430928 Ry
     hartree contribution      =       1.08556204 Ry
     xc contribution           =      -4.81829101 Ry
     ewald contribution        =     -16.89975868 Ry

     convergence has been achieved in   6 iterations

     Forces acting on atoms (Ry/au):

     atom    1 type  1   force =    -0.00000000   -0.00000000    0.00000000
     atom    2 type  1   force =     0.00000000    0.00000000   -0.00000000

     Total force =     0.000000     Total SCF correction =     0.000000


     entering subroutine stress ...

          total   stress  (Ry/bohr**3)                   (kbar)     P=  -10.52
  -0.00007154   0.00000000  -0.00000000        -10.52      0.00     -0.00
   0.00000000  -0.00007154   0.00000000          0.00    -10.52      0.00
  -0.00000000   0.00000000  -0.00007154         -0.00      0.00    -10.52


     Writing output data file silicon.save

     init_run     :      0.03s CPU      0.03s WALL (       1 calls)
     electrons    :      0.12s CPU      0.12s WALL (       1 calls)
     forces       :      0.00s CPU      0.00s WALL (       1 calls)
     stress       :      0.01s CPU      0.02s WALL (       1 calls)

     Called by init_run:
     wfcinit      :      0.01s CPU      0.01s WALL (       1 calls)
     potinit      :      0.00s CPU      0.00s WALL (       1 calls)

     Called by electrons:
     c_bands      :      0.08s CPU      0.08s WALL (       7 calls)
     sum_band     :      0.03s CPU      0.03s WALL (       7 calls)
     v_of_rho     :      0.02s CPU      0.00s WALL (       7 calls)
     mix_rho      :      0.00s CPU      0.00s WALL (       7 calls)

     Called by c_bands:
     init_us_2    :      0.01s CPU      0.01s WALL (     170 calls)
     cegterg      :      0.07s CPU      0.08s WALL (      70 calls)

     Called by sum_band:

     Called by *egterg:
     h_psi        :      0.06s CPU      0.07s WALL (     208 calls)
     g_psi        :      0.00s CPU      0.00s WALL (     128 calls)
     cdiaghg      :      0.00s CPU      0.01s WALL (     188 calls)

     Called by h_psi:
     h_psi:pot    :      0.06s CPU      0.07s WALL (     208 calls)
     h_psi:calbec :      0.00s CPU      0.00s WALL (     208 calls)
     vloc_psi     :      0.05s CPU      0.06s WALL (     208 calls)
     add_vuspsi   :      0.00s CPU      0.00s WALL (     208 calls)

     General routines
     calbec       :      0.00s CPU      0.00s WALL (     258 calls)
     fft          :      0.00s CPU      0.00s WALL (      34 calls)
     fftw         :      0.06s CPU      0.06s WALL (    1942 calls)
     davcio       :      0.00s CPU      0.00s WALL (      10 calls)

     Parallel routines
     fft_scatter  :      0.00s CPU      0.01s WALL (    1976 calls)

     PWSCF        :     0.21s CPU         0.21s WALL


   This run was terminated on:  12:52: 7  22Jun2018            

=------------------------------------------------------------------------------=
   JOB DONE.
=------------------------------------------------------------------------------=
