
     Program PWSCF v.6.0 (svn rev. 13079) starts on 16Apr2018 at 16: 0:22 

     This program is part of the open-source Quantum ESPRESSO suite
     for quantum simulation of materials; please cite
         "P. Giannozzi et al., J. Phys.:Condens. Matter 21 395502 (2009);
          URL http://www.quantum-espresso.org", 
     in publications or presentations arising from this work. More details at
     http://www.quantum-espresso.org/quote

     Parallel version (MPI), running on     1 processors
     Waiting for input...
     Reading input from standard input

     Current dimensions of program PWSCF are:
     Max number of different atomic species (ntypx) = 10
     Max number of k-points (npk) =  40000
     Max angular momentum in pseudopotentials (lmaxx) =  3

     Subspace diagonalization in iterative solution of the eigenvalue problem:
     a serial algorithm will be used


     G-vector sticks info
     --------------------
     sticks:   dense  smooth     PW     G-vecs:    dense   smooth      PW
     Sum         211     211     73                 1989     1989     411



     bravais-lattice index     =            2
     lattice parameter (alat)  =      10.2000  a.u.
     unit-cell volume          =     265.3020 (a.u.)^3
     number of atoms/cell      =            2
     number of atomic types    =            1
     number of electrons       =         8.00
     number of Kohn-Sham states=            4
     kinetic-energy cutoff     =      14.4350  Ry
     charge density cutoff     =      57.7400  Ry
     convergence threshold     =      1.0E-08
     mixing beta               =       0.7000
     number of iterations used =            8  plain     mixing
     Exchange-correlation      =  SLA  PZ   NOGX NOGC ( 1  1  0  0 0 0)

     celldm(1)=  10.200000  celldm(2)=   0.000000  celldm(3)=   0.000000
     celldm(4)=   0.000000  celldm(5)=   0.000000  celldm(6)=   0.000000

     crystal axes: (cart. coord. in units of alat)
               a(1) = (  -0.500000   0.000000   0.500000 )  
               a(2) = (   0.000000   0.500000   0.500000 )  
               a(3) = (  -0.500000   0.500000   0.000000 )  

     reciprocal axes: (cart. coord. in units 2 pi/alat)
               b(1) = ( -1.000000 -1.000000  1.000000 )  
               b(2) = (  1.000000  1.000000  1.000000 )  
               b(3) = ( -1.000000  1.000000 -1.000000 )  


     PseudoPot. # 1 for Si read from file:
     ../../../PP/Si.pz-vbc.UPF
     MD5 check sum: 6dfa03ddd5817404712e03e4d12deb78
     Pseudo is Norm-conserving, Zval =  4.0
     Generated by new atomic code, or converted to UPF format
     Using radial grid of  431 points,  2 beta functions with: 
                l(1) =   0
                l(2) =   1

     atomic species   valence    mass     pseudopotential
        Si             4.00    28.08600     Si( 1.00)

     24 Sym. Ops. (no inversion) found
          (note: 24 additional sym.ops. were found but ignored
           their fractional translations are incommensurate with FFT grid)


   Cartesian axes

     site n.     atom                  positions (alat units)
         1           Si  tau(   1) = (   0.0000000   0.0000000   0.0000000  )
         2           Si  tau(   2) = (  -0.2500000   0.2500000   0.2500000  )

     number of k points=    10
                       cart. coord. in units 2pi/alat
        k(    1) = (   0.0000000   0.0000000   0.0000000), wk =   0.0160000
        k(    2) = (  -0.2000000   0.2000000  -0.2000000), wk =   0.1280000
        k(    3) = (  -0.4000000   0.4000000  -0.4000000), wk =   0.1280000
        k(    4) = (   0.0000000   0.4000000   0.0000000), wk =   0.0960000
        k(    5) = (  -0.2000000   0.6000000  -0.2000000), wk =   0.3840000
        k(    6) = (   0.6000000  -0.2000000   0.6000000), wk =   0.3840000
        k(    7) = (   0.4000000   0.0000000   0.4000000), wk =   0.1920000
        k(    8) = (   0.0000000   0.8000000   0.0000000), wk =   0.0960000
        k(    9) = (   0.8000000   0.0000000   0.8000000), wk =   0.1920000
        k(   10) = (   0.6000000  -0.2000000   1.0000000), wk =   0.3840000

     Dense  grid:     1989 G-vectors     FFT dimensions: (  18,  18,  18)

     Estimated max dynamical RAM per process >       1.46Mb

     Initial potential from superposition of free atoms

     starting charge    7.99901, renormalised to    8.00000
     Starting wfc are    8 randomized atomic wfcs

     total cpu time spent up to now is        0.1 secs

     per-process dynamical memory:     5.1 Mb

     Self-consistent Calculation

     iteration #  1     ecut=    14.44 Ry     beta=0.70
     Davidson diagonalization with overlap
     ethr =  1.00E-02,  avg # of iterations =  2.0

     Threshold (ethr) on eigenvalues was too large:
     Diagonalizing with lowered threshold

     Davidson diagonalization with overlap
     ethr =  7.88E-04,  avg # of iterations =  1.0

     total cpu time spent up to now is        0.1 secs

     total energy              =     -15.82302270 Ry
     Harris-Foulkes estimate   =     -15.84457172 Ry
     estimated scf accuracy    <       0.06290507 Ry

     iteration #  2     ecut=    14.44 Ry     beta=0.70
     Davidson diagonalization with overlap
     ethr =  7.86E-04,  avg # of iterations =  1.0

     total cpu time spent up to now is        0.1 secs

     total energy              =     -15.82609579 Ry
     Harris-Foulkes estimate   =     -15.82643055 Ry
     estimated scf accuracy    <       0.00223260 Ry

     iteration #  3     ecut=    14.44 Ry     beta=0.70
     Davidson diagonalization with overlap
     ethr =  2.79E-05,  avg # of iterations =  2.0

     total cpu time spent up to now is        0.2 secs

     total energy              =     -15.82648784 Ry
     Harris-Foulkes estimate   =     -15.82651590 Ry
     estimated scf accuracy    <       0.00006704 Ry

     iteration #  4     ecut=    14.44 Ry     beta=0.70
     Davidson diagonalization with overlap
     ethr =  8.38E-07,  avg # of iterations =  2.1

     total cpu time spent up to now is        0.2 secs

     total energy              =     -15.82650266 Ry
     Harris-Foulkes estimate   =     -15.82650525 Ry
     estimated scf accuracy    <       0.00000582 Ry

     iteration #  5     ecut=    14.44 Ry     beta=0.70
     Davidson diagonalization with overlap
     ethr =  7.28E-08,  avg # of iterations =  2.2

     total cpu time spent up to now is        0.2 secs

     total energy              =     -15.82650357 Ry
     Harris-Foulkes estimate   =     -15.82650359 Ry
     estimated scf accuracy    <       0.00000005 Ry

     iteration #  6     ecut=    14.44 Ry     beta=0.70
     Davidson diagonalization with overlap
     ethr =  6.75E-10,  avg # of iterations =  2.8

     total cpu time spent up to now is        0.2 secs

     End of self-consistent calculation

          k = 0.0000 0.0000 0.0000 (   259 PWs)   bands (ev):

    -5.7637   6.2784   6.2784   6.2784

          k =-0.2000 0.2000-0.2000 (   250 PWs)   bands (ev):

    -5.2415   3.2506   5.6830   5.6830

          k =-0.4000 0.4000-0.4000 (   247 PWs)   bands (ev):

    -3.8522  -0.0677   5.1262   5.1262

          k = 0.0000 0.4000 0.0000 (   246 PWs)   bands (ev):

    -5.0569   3.6919   4.7512   4.7512

          k =-0.2000 0.6000-0.2000 (   245 PWs)   bands (ev):

    -3.8963   0.9545   3.5990   4.2330

          k = 0.6000-0.2000 0.6000 (   246 PWs)   bands (ev):

    -2.9821  -0.4818   2.7720   4.5233

          k = 0.4000 0.0000 0.4000 (   250 PWs)   bands (ev):

    -4.3919   1.7986   3.1899   5.4146

          k = 0.0000 0.8000 0.0000 (   242 PWs)   bands (ev):

    -3.0055   0.1118   3.5173   3.5173

          k = 0.8000 0.0000 0.8000 (   242 PWs)   bands (ev):

    -1.7608  -1.1726   2.0889   3.6394

          k = 0.6000-0.2000 1.0000 (   245 PWs)   bands (ev):

    -2.5498  -0.2752   2.1803   3.1968

     highest occupied level (ev):     6.2784

!    total energy              =     -15.82650359 Ry
     Harris-Foulkes estimate   =     -15.82650359 Ry
     estimated scf accuracy    <          5.3E-10 Ry

     The total energy is the sum of the following terms:

     one-electron contribution =       4.80579934 Ry
     hartree contribution      =       1.08263478 Ry
     xc contribution           =      -4.81517914 Ry
     ewald contribution        =     -16.89975857 Ry

     convergence has been achieved in   6 iterations

     Forces acting on atoms (Ry/au):

     atom    1 type  1   force =     0.00000000   -0.00000000    0.00000000
     atom    2 type  1   force =     0.00000000    0.00000000   -0.00000000

     Total force =     0.000000     Total SCF correction =     0.000000


     entering subroutine stress ...

          total   stress  (Ry/bohr**3)                   (kbar)     P=  -20.56
  -0.00013979  -0.00000000   0.00000000        -20.56     -0.00      0.00
   0.00000000  -0.00013979  -0.00000000          0.00    -20.56     -0.00
  -0.00000000  -0.00000000  -0.00013979         -0.00     -0.00    -20.56


     Writing output data file silicon.save

     init_run     :      0.05s CPU      0.05s WALL (       1 calls)
     electrons    :      0.19s CPU      0.19s WALL (       1 calls)
     forces       :      0.01s CPU      0.01s WALL (       1 calls)
     stress       :      0.03s CPU      0.03s WALL (       1 calls)

     Called by init_run:
     wfcinit      :      0.02s CPU      0.02s WALL (       1 calls)
     potinit      :      0.00s CPU      0.00s WALL (       1 calls)

     Called by electrons:
     c_bands      :      0.16s CPU      0.15s WALL (       7 calls)
     sum_band     :      0.03s CPU      0.03s WALL (       7 calls)
     v_of_rho     :      0.01s CPU      0.00s WALL (       7 calls)
     mix_rho      :      0.00s CPU      0.00s WALL (       7 calls)

     Called by c_bands:
     init_us_2    :      0.01s CPU      0.01s WALL (     170 calls)
     cegterg      :      0.14s CPU      0.15s WALL (      70 calls)

     Called by sum_band:

     Called by *egterg:
     h_psi        :      0.16s CPU      0.15s WALL (     211 calls)
     g_psi        :      0.00s CPU      0.00s WALL (     131 calls)
     cdiaghg      :      0.00s CPU      0.01s WALL (     191 calls)

     Called by h_psi:
     h_psi:pot    :      0.16s CPU      0.15s WALL (     211 calls)
     h_psi:calbec :      0.00s CPU      0.00s WALL (     211 calls)
     vloc_psi     :      0.15s CPU      0.14s WALL (     211 calls)
     add_vuspsi   :      0.00s CPU      0.00s WALL (     211 calls)

     General routines
     calbec       :      0.00s CPU      0.00s WALL (     261 calls)
     fft          :      0.01s CPU      0.01s WALL (      34 calls)
     fftw         :      0.16s CPU      0.15s WALL (    1942 calls)
     davcio       :      0.00s CPU      0.00s WALL (      10 calls)

     Parallel routines
     fft_scatter  :      0.00s CPU      0.01s WALL (    1976 calls)

     PWSCF        :     0.34s CPU         0.38s WALL


   This run was terminated on:  16: 0:22  16Apr2018            

=------------------------------------------------------------------------------=
   JOB DONE.
=------------------------------------------------------------------------------=
