
     Program PWSCF v.6.0 (svn rev. 13079) starts on 16Apr2018 at 16:28:20 

     This program is part of the open-source Quantum ESPRESSO suite
     for quantum simulation of materials; please cite
         "P. Giannozzi et al., J. Phys.:Condens. Matter 21 395502 (2009);
          URL http://www.quantum-espresso.org", 
     in publications or presentations arising from this work. More details at
     http://www.quantum-espresso.org/quote

     Parallel version (MPI), running on     1 processors
     Waiting for input...
     Reading input from standard input
     Message from routine read_cards :
     DEPRECATED: no units specified in ATOMIC_POSITIONS card
     Message from routine read_cards :
     ATOMIC_POSITIONS: units set to alat

     Current dimensions of program PWSCF are:
     Max number of different atomic species (ntypx) = 10
     Max number of k-points (npk) =  40000
     Max angular momentum in pseudopotentials (lmaxx) =  3

     Subspace diagonalization in iterative solution of the eigenvalue problem:
     a serial algorithm will be used


     G-vector sticks info
     --------------------
     sticks:   dense  smooth     PW     G-vecs:    dense   smooth      PW
     Sum         139     139     55                 1067     1067     283



     bravais-lattice index     =            2
     lattice parameter (alat)  =       7.5000  a.u.
     unit-cell volume          =     105.4688 (a.u.)^3
     number of atoms/cell      =            1
     number of atomic types    =            1
     number of electrons       =         3.00
     number of Kohn-Sham states=            6
     kinetic-energy cutoff     =      18.0000  Ry
     charge density cutoff     =      72.0000  Ry
     convergence threshold     =      1.0E-06
     mixing beta               =       0.7000
     number of iterations used =            8  plain     mixing
     Exchange-correlation      =  SLA  PZ   NOGX NOGC ( 1  1  0  0 0 0)

     celldm(1)=   7.500000  celldm(2)=   0.000000  celldm(3)=   0.000000
     celldm(4)=   0.000000  celldm(5)=   0.000000  celldm(6)=   0.000000

     crystal axes: (cart. coord. in units of alat)
               a(1) = (  -0.500000   0.000000   0.500000 )  
               a(2) = (   0.000000   0.500000   0.500000 )  
               a(3) = (  -0.500000   0.500000   0.000000 )  

     reciprocal axes: (cart. coord. in units 2 pi/alat)
               b(1) = ( -1.000000 -1.000000  1.000000 )  
               b(2) = (  1.000000  1.000000  1.000000 )  
               b(3) = ( -1.000000  1.000000 -1.000000 )  


     PseudoPot. # 1 for Al read from file:
     ../../../PP/Al.pz-vbc.UPF
     MD5 check sum: f06ceae8da0fe5c02c98e3688433298c
     Pseudo is Norm-conserving, Zval =  3.0
     Generated by new atomic code, or converted to UPF format
     Using radial grid of  171 points,  2 beta functions with: 
                l(1) =   0
                l(2) =   1

     atomic species   valence    mass     pseudopotential
        Al             3.00    26.98000     Al( 1.00)

     48 Sym. Ops., with inversion, found



   Cartesian axes

     site n.     atom                  positions (alat units)
         1           Al  tau(   1) = (   0.0000000   0.0000000   0.0000000  )

     number of k points=    47  Marzari-Vanderbilt smearing, width (Ry)=  0.0500
                       cart. coord. in units 2pi/alat
        k(    1) = (   0.0000000   0.0000000   0.0000000), wk =   0.0020000
        k(    2) = (  -0.1000000   0.1000000  -0.1000000), wk =   0.0160000
        k(    3) = (  -0.2000000   0.2000000  -0.2000000), wk =   0.0160000
        k(    4) = (  -0.3000000   0.3000000  -0.3000000), wk =   0.0160000
        k(    5) = (  -0.4000000   0.4000000  -0.4000000), wk =   0.0160000
        k(    6) = (   0.5000000  -0.5000000   0.5000000), wk =   0.0080000
        k(    7) = (   0.0000000   0.2000000   0.0000000), wk =   0.0120000
        k(    8) = (  -0.1000000   0.3000000  -0.1000000), wk =   0.0480000
        k(    9) = (  -0.2000000   0.4000000  -0.2000000), wk =   0.0480000
        k(   10) = (  -0.3000000   0.5000000  -0.3000000), wk =   0.0480000
        k(   11) = (   0.6000000  -0.4000000   0.6000000), wk =   0.0480000
        k(   12) = (   0.5000000  -0.3000000   0.5000000), wk =   0.0480000
        k(   13) = (   0.4000000  -0.2000000   0.4000000), wk =   0.0480000
        k(   14) = (   0.3000000  -0.1000000   0.3000000), wk =   0.0480000
        k(   15) = (   0.2000000   0.0000000   0.2000000), wk =   0.0240000
        k(   16) = (   0.0000000   0.4000000   0.0000000), wk =   0.0120000
        k(   17) = (  -0.1000000   0.5000000  -0.1000000), wk =   0.0480000
        k(   18) = (  -0.2000000   0.6000000  -0.2000000), wk =   0.0480000
        k(   19) = (   0.7000000  -0.3000000   0.7000000), wk =   0.0480000
        k(   20) = (   0.6000000  -0.2000000   0.6000000), wk =   0.0480000
        k(   21) = (   0.5000000  -0.1000000   0.5000000), wk =   0.0480000
        k(   22) = (   0.4000000   0.0000000   0.4000000), wk =   0.0240000
        k(   23) = (   0.0000000   0.6000000   0.0000000), wk =   0.0120000
        k(   24) = (  -0.1000000   0.7000000  -0.1000000), wk =   0.0480000
        k(   25) = (   0.8000000  -0.2000000   0.8000000), wk =   0.0480000
        k(   26) = (   0.7000000  -0.1000000   0.7000000), wk =   0.0480000
        k(   27) = (   0.6000000  -0.0000000   0.6000000), wk =   0.0240000
        k(   28) = (   0.0000000   0.8000000   0.0000000), wk =   0.0120000
        k(   29) = (   0.9000000  -0.1000000   0.9000000), wk =   0.0480000
        k(   30) = (   0.8000000   0.0000000   0.8000000), wk =   0.0240000
        k(   31) = (   0.0000000  -1.0000000   0.0000000), wk =   0.0060000
        k(   32) = (  -0.2000000   0.4000000   0.0000000), wk =   0.0480000
        k(   33) = (  -0.3000000   0.5000000  -0.1000000), wk =   0.0960000
        k(   34) = (   0.6000000  -0.4000000   0.8000000), wk =   0.0960000
        k(   35) = (   0.5000000  -0.3000000   0.7000000), wk =   0.0480000
        k(   36) = (  -0.2000000   0.6000000   0.0000000), wk =   0.0480000
        k(   37) = (   0.7000000  -0.3000000   0.9000000), wk =   0.0960000
        k(   38) = (   0.6000000  -0.2000000   0.8000000), wk =   0.0960000
        k(   39) = (   0.5000000  -0.1000000   0.7000000), wk =   0.0960000
        k(   40) = (   0.4000000   0.0000000   0.6000000), wk =   0.0480000
        k(   41) = (   0.8000000  -0.2000000   1.0000000), wk =   0.0480000
        k(   42) = (   0.7000000  -0.1000000   0.9000000), wk =   0.0960000
        k(   43) = (   0.6000000   0.0000000   0.8000000), wk =   0.0480000
        k(   44) = (  -0.2000000  -1.0000000   0.0000000), wk =   0.0240000
        k(   45) = (   0.6000000  -0.2000000   1.0000000), wk =   0.0480000
        k(   46) = (   0.5000000  -0.1000000   0.9000000), wk =   0.0480000
        k(   47) = (  -0.4000000  -1.0000000   0.0000000), wk =   0.0240000

     Dense  grid:     1067 G-vectors     FFT dimensions: (  15,  15,  15)

     Estimated max dynamical RAM per process >       1.33Mb

     Initial potential from superposition of free atoms

     starting charge    2.99794, renormalised to    3.00000
     Starting wfc are    4 randomized atomic wfcs +    2 random wfc

     total cpu time spent up to now is        0.1 secs

     per-process dynamical memory:     5.1 Mb

     Self-consistent Calculation

     iteration #  1     ecut=    18.00 Ry     beta=0.70
     Davidson diagonalization with overlap
     ethr =  1.00E-02,  avg # of iterations =  4.4

     Threshold (ethr) on eigenvalues was too large:
     Diagonalizing with lowered threshold

     Davidson diagonalization with overlap
     ethr =  1.92E-04,  avg # of iterations =  1.6

     total cpu time spent up to now is        0.3 secs

     total energy              =      -4.18847926 Ry
     Harris-Foulkes estimate   =      -4.18927246 Ry
     estimated scf accuracy    <       0.00576993 Ry

     iteration #  2     ecut=    18.00 Ry     beta=0.70
     Davidson diagonalization with overlap
     ethr =  1.92E-04,  avg # of iterations =  1.0

     total cpu time spent up to now is        0.4 secs

     total energy              =      -4.18847918 Ry
     Harris-Foulkes estimate   =      -4.18850482 Ry
     estimated scf accuracy    <       0.00044485 Ry

     iteration #  3     ecut=    18.00 Ry     beta=0.70
     Davidson diagonalization with overlap
     ethr =  1.48E-05,  avg # of iterations =  1.3

     total cpu time spent up to now is        0.5 secs

     End of self-consistent calculation

          k = 0.0000 0.0000 0.0000 (   137 PWs)   bands (ev):

    -3.1931  21.1695  21.1696  22.5464  22.5464  22.5464

          k =-0.1000 0.1000-0.1000 (   141 PWs)   bands (ev):

    -2.9082  17.7637  20.3954  20.3954  23.2863  23.7369

          k =-0.2000 0.2000-0.2000 (   138 PWs)   bands (ev):

    -2.0582  13.7016  19.6187  19.6187  23.0543  24.2263

          k =-0.3000 0.3000-0.3000 (   144 PWs)   bands (ev):

    -0.6584   9.9507  19.2603  19.2603  22.4391  22.4392

          k =-0.4000 0.4000-0.4000 (   144 PWs)   bands (ev):

     1.2690   6.6063  19.3579  19.3579  20.9516  20.9527

          k = 0.5000-0.5000 0.5000 (   138 PWs)   bands (ev):

     3.5911   3.8139  19.8850  19.8850  19.9570  19.9571

          k = 0.0000 0.2000 0.0000 (   141 PWs)   bands (ev):

    -2.8134  18.9646  18.9646  19.2223  21.8105  24.6023

          k =-0.1000 0.3000-0.1000 (   138 PWs)   bands (ev):

    -2.1521  15.1874  17.9774  19.4040  21.8576  22.7060

          k =-0.2000 0.4000-0.2000 (   142 PWs)   bands (ev):

    -0.9366  11.3636  17.4473  19.0742  19.8234  24.7035

          k =-0.3000 0.5000-0.3000 (   140 PWs)   bands (ev):

     0.8135   7.8975  17.3822  18.0838  19.1193  23.7353

          k = 0.6000-0.4000 0.6000 (   135 PWs)   bands (ev):

     3.0683   4.8611  16.8785  17.7829  19.5613  22.5605

          k = 0.5000-0.3000 0.5000 (   136 PWs)   bands (ev):

     2.2642   5.8203  16.1491  18.6518  20.4900  21.8454

          k = 0.4000-0.2000 0.4000 (   140 PWs)   bands (ev):

     0.1723   9.0017  15.9106  19.9791  21.6026  21.8830

          k = 0.3000-0.1000 0.3000 (   140 PWs)   bands (ev):

    -1.4024  12.5716  16.1826  21.5268  22.0052  23.6841

          k = 0.2000 0.0000 0.2000 (   141 PWs)   bands (ev):

    -2.4350  16.1071  17.2858  21.9077  22.8441  24.0834

          k = 0.0000 0.4000 0.0000 (   133 PWs)   bands (ev):

    -1.6824  16.7794  16.8156  16.8156  19.2281  20.3479

          k =-0.1000 0.5000-0.1000 (   139 PWs)   bands (ev):

    -0.6578  13.1764  16.1223  16.8092  17.5707  21.0519

          k =-0.2000 0.6000-0.2000 (   136 PWs)   bands (ev):

     0.9049   9.6598  14.9492  15.8976  17.5995  23.5724

          k = 0.7000-0.3000 0.7000 (   136 PWs)   bands (ev):

     2.9780   6.5112  13.5489  16.1370  17.9415  25.6962

          k = 0.6000-0.2000 0.6000 (   129 PWs)   bands (ev):

     3.7765   5.5517  12.6534  16.8449  18.7568  24.8353

          k = 0.5000-0.1000 0.5000 (   136 PWs)   bands (ev):

     1.5415   8.5036  12.3108  18.0210  20.0463  24.4269

          k = 0.4000 0.0000 0.4000 (   137 PWs)   bands (ev):

    -0.1959  11.3681  12.9967  19.6647  21.7624  24.1155

          k = 0.0000 0.6000 0.0000 (   133 PWs)   bands (ev):

     0.1727  14.2678  14.9512  15.2737  15.2737  18.9603

          k =-0.1000 0.7000-0.1000 (   133 PWs)   bands (ev):

     1.5404  11.7389  12.2671  14.8905  16.1629  19.8995

          k = 0.8000-0.2000 0.8000 (   135 PWs)   bands (ev):

     3.4155   8.6090  10.6264  14.9715  16.5674  22.7400

          k = 0.7000-0.1000 0.7000 (   132 PWs)   bands (ev):

     5.6090   5.9333   9.5768  15.5185  17.2744  26.1924

          k = 0.6000-0.0000 0.6000 (   136 PWs)   bands (ev):

     3.4242   7.9934   9.5971  16.5313  18.4448  27.7994

          k = 0.0000 0.8000 0.0000 (   129 PWs)   bands (ev):

     2.7040   9.8779  13.8403  14.3541  14.3541  18.0210

          k = 0.9000-0.1000 0.9000 (   133 PWs)   bands (ev):

     4.3495   8.1115  11.1722  14.2773  15.4591  19.2872

          k = 0.8000 0.0000 0.8000 (   134 PWs)   bands (ev):

     5.9881   7.2885   8.4147  14.6646  16.2131  22.4517

          k = 0.0000-1.0000 0.0000 (   126 PWs)   bands (ev):

     5.3254   6.6402  13.4685  14.0496  14.0496  17.6915

          k =-0.2000 0.4000 0.0000 (   137 PWs)   bands (ev):

    -1.3089  13.7425  15.1663  19.5365  20.4918  22.3491

          k =-0.3000 0.5000-0.1000 (   140 PWs)   bands (ev):

     0.0804  10.5432  14.2634  17.5269  20.8369  23.9080

          k = 0.6000-0.4000 0.8000 (   137 PWs)   bands (ev):

     1.9933   7.2806  14.2722  15.9963  21.0373  22.7842

          k = 0.5000-0.3000 0.7000 (   134 PWs)   bands (ev):

     4.2672   4.5479  14.6074  15.1603  21.4455  21.9362

          k =-0.2000 0.6000 0.0000 (   136 PWs)   bands (ev):

     0.5394  12.0453  13.4758  14.7527  18.8689  21.0756

          k = 0.7000-0.3000 0.9000 (   134 PWs)   bands (ev):

     2.2618   9.1739  12.5811  13.3082  19.6118  23.2630

          k = 0.6000-0.2000 0.8000 (   136 PWs)   bands (ev):

     4.4676   6.2446  11.5910  13.4105  20.1792  24.8715

          k = 0.5000-0.1000 0.7000 (   134 PWs)   bands (ev):

     3.6881   7.1326  10.9354  14.2776  21.1209  24.1712

          k = 0.4000 0.0000 0.6000 (   140 PWs)   bands (ev):

     1.6314   9.6763  11.3096  15.6642  22.4427  23.2701

          k = 0.8000-0.2000 1.0000 (   130 PWs)   bands (ev):

     3.0607  10.1856  11.0260  12.6932  17.8685  20.2193

          k = 0.7000-0.1000 0.9000 (   132 PWs)   bands (ev):

     5.0424   8.3599   8.9732  12.3696  18.9622  22.7320

          k = 0.6000 0.0000 0.8000 (   132 PWs)   bands (ev):

     5.8534   6.9897   8.5314  13.0479  19.8689  26.1624

          k =-0.2000-1.0000 0.0000 (   136 PWs)   bands (ev):

     5.6551   6.9985  10.6852  12.3362  17.5316  19.9198

          k = 0.6000-0.2000 1.0000 (   138 PWs)   bands (ev):

     4.1210   8.6649  10.1254  11.5232  22.3106  23.6569

          k = 0.5000-0.1000 0.9000 (   136 PWs)   bands (ev):

     6.2754   6.5791   9.8470  10.7606  23.2755  23.8274

          k =-0.4000-1.0000 0.0000 (   136 PWs)   bands (ev):

     6.6549   7.9851   8.3280  10.1694  21.9807  23.6011

     the Fermi energy is     8.3891 ev

!    total energy              =      -4.18848227 Ry
     Harris-Foulkes estimate   =      -4.18848216 Ry
     estimated scf accuracy    <       0.00000033 Ry

     The total energy is the sum of the following terms:

     one-electron contribution =       2.93975738 Ry
     hartree contribution      =       0.00967293 Ry
     xc contribution           =      -1.63457230 Ry
     ewald contribution        =      -5.50183451 Ry
     smearing contrib. (-TS)   =      -0.00150576 Ry

     convergence has been achieved in   3 iterations

     Forces acting on atoms (Ry/au):

     atom    1 type  1   force =     0.00000000    0.00000000    0.00000000

     Total force =     0.000000     Total SCF correction =     0.000000


     entering subroutine stress ...

          total   stress  (Ry/bohr**3)                   (kbar)     P=   -8.76
  -0.00005955   0.00000000   0.00000000         -8.76      0.00      0.00
   0.00000000  -0.00005955  -0.00000000          0.00     -8.76     -0.00
   0.00000000  -0.00000000  -0.00005955          0.00     -0.00     -8.76


     Writing output data file aluminium.save

     init_run     :      0.04s CPU      0.04s WALL (       1 calls)
     electrons    :      0.38s CPU      0.40s WALL (       1 calls)
     forces       :      0.00s CPU      0.00s WALL (       1 calls)
     stress       :      0.03s CPU      0.03s WALL (       1 calls)

     Called by init_run:
     wfcinit      :      0.03s CPU      0.03s WALL (       1 calls)
     potinit      :      0.00s CPU      0.00s WALL (       1 calls)

     Called by electrons:
     c_bands      :      0.32s CPU      0.35s WALL (       4 calls)
     sum_band     :      0.04s CPU      0.05s WALL (       4 calls)
     v_of_rho     :      0.00s CPU      0.00s WALL (       4 calls)
     mix_rho      :      0.00s CPU      0.00s WALL (       4 calls)

     Called by c_bands:
     init_us_2    :      0.01s CPU      0.02s WALL (     517 calls)
     cegterg      :      0.31s CPU      0.33s WALL (     188 calls)

     Called by sum_band:

     Called by *egterg:
     h_psi        :      0.23s CPU      0.23s WALL (     627 calls)
     g_psi        :      0.00s CPU      0.00s WALL (     392 calls)
     cdiaghg      :      0.06s CPU      0.05s WALL (     533 calls)

     Called by h_psi:
     h_psi:pot    :      0.23s CPU      0.23s WALL (     627 calls)
     h_psi:calbec :      0.01s CPU      0.01s WALL (     627 calls)
     vloc_psi     :      0.22s CPU      0.21s WALL (     627 calls)
     add_vuspsi   :      0.00s CPU      0.01s WALL (     627 calls)

     General routines
     calbec       :      0.02s CPU      0.01s WALL (     862 calls)
     fft          :      0.00s CPU      0.00s WALL (      22 calls)
     fftw         :      0.18s CPU      0.20s WALL (    7454 calls)
     davcio       :      0.00s CPU      0.00s WALL (      47 calls)

     Parallel routines
     fft_scatter  :      0.04s CPU      0.03s WALL (    7476 calls)

     PWSCF        :     0.58s CPU         0.63s WALL


   This run was terminated on:  16:28:21  16Apr2018            

=------------------------------------------------------------------------------=
   JOB DONE.
=------------------------------------------------------------------------------=
