
     Program PWSCF v.6.0 (svn rev. 13079) starts on 16Apr2018 at 16: 0:21 

     This program is part of the open-source Quantum ESPRESSO suite
     for quantum simulation of materials; please cite
         "P. Giannozzi et al., J. Phys.:Condens. Matter 21 395502 (2009);
          URL http://www.quantum-espresso.org", 
     in publications or presentations arising from this work. More details at
     http://www.quantum-espresso.org/quote

     Parallel version (MPI), running on     1 processors
     Waiting for input...
     Reading input from standard input

     Current dimensions of program PWSCF are:
     Max number of different atomic species (ntypx) = 10
     Max number of k-points (npk) =  40000
     Max angular momentum in pseudopotentials (lmaxx) =  3

     Subspace diagonalization in iterative solution of the eigenvalue problem:
     a serial algorithm will be used


     G-vector sticks info
     --------------------
     sticks:   dense  smooth     PW     G-vecs:    dense   smooth      PW
     Sum         187     187     61                 1639     1639     339



     bravais-lattice index     =            2
     lattice parameter (alat)  =      10.2000  a.u.
     unit-cell volume          =     265.3020 (a.u.)^3
     number of atoms/cell      =            2
     number of atomic types    =            1
     number of electrons       =         8.00
     number of Kohn-Sham states=            4
     kinetic-energy cutoff     =      12.8260  Ry
     charge density cutoff     =      51.3040  Ry
     convergence threshold     =      1.0E-08
     mixing beta               =       0.7000
     number of iterations used =            8  plain     mixing
     Exchange-correlation      =  SLA  PZ   NOGX NOGC ( 1  1  0  0 0 0)

     celldm(1)=  10.200000  celldm(2)=   0.000000  celldm(3)=   0.000000
     celldm(4)=   0.000000  celldm(5)=   0.000000  celldm(6)=   0.000000

     crystal axes: (cart. coord. in units of alat)
               a(1) = (  -0.500000   0.000000   0.500000 )  
               a(2) = (   0.000000   0.500000   0.500000 )  
               a(3) = (  -0.500000   0.500000   0.000000 )  

     reciprocal axes: (cart. coord. in units 2 pi/alat)
               b(1) = ( -1.000000 -1.000000  1.000000 )  
               b(2) = (  1.000000  1.000000  1.000000 )  
               b(3) = ( -1.000000  1.000000 -1.000000 )  


     PseudoPot. # 1 for Si read from file:
     ../../../PP/Si.pz-vbc.UPF
     MD5 check sum: 6dfa03ddd5817404712e03e4d12deb78
     Pseudo is Norm-conserving, Zval =  4.0
     Generated by new atomic code, or converted to UPF format
     Using radial grid of  431 points,  2 beta functions with: 
                l(1) =   0
                l(2) =   1

     atomic species   valence    mass     pseudopotential
        Si             4.00    28.08600     Si( 1.00)

     24 Sym. Ops. (no inversion) found
          (note: 24 additional sym.ops. were found but ignored
           their fractional translations are incommensurate with FFT grid)


   Cartesian axes

     site n.     atom                  positions (alat units)
         1           Si  tau(   1) = (   0.0000000   0.0000000   0.0000000  )
         2           Si  tau(   2) = (  -0.2500000   0.2500000   0.2500000  )

     number of k points=    10
                       cart. coord. in units 2pi/alat
        k(    1) = (   0.0000000   0.0000000   0.0000000), wk =   0.0160000
        k(    2) = (  -0.2000000   0.2000000  -0.2000000), wk =   0.1280000
        k(    3) = (  -0.4000000   0.4000000  -0.4000000), wk =   0.1280000
        k(    4) = (   0.0000000   0.4000000   0.0000000), wk =   0.0960000
        k(    5) = (  -0.2000000   0.6000000  -0.2000000), wk =   0.3840000
        k(    6) = (   0.6000000  -0.2000000   0.6000000), wk =   0.3840000
        k(    7) = (   0.4000000   0.0000000   0.4000000), wk =   0.1920000
        k(    8) = (   0.0000000   0.8000000   0.0000000), wk =   0.0960000
        k(    9) = (   0.8000000   0.0000000   0.8000000), wk =   0.1920000
        k(   10) = (   0.6000000  -0.2000000   1.0000000), wk =   0.3840000

     Dense  grid:     1639 G-vectors     FFT dimensions: (  18,  18,  18)

     Estimated max dynamical RAM per process >       1.28Mb

     Initial potential from superposition of free atoms

     starting charge    7.99901, renormalised to    8.00000
     Starting wfc are    8 randomized atomic wfcs

     total cpu time spent up to now is        0.1 secs

     per-process dynamical memory:     5.0 Mb

     Self-consistent Calculation

     iteration #  1     ecut=    12.83 Ry     beta=0.70
     Davidson diagonalization with overlap
     ethr =  1.00E-02,  avg # of iterations =  2.0

     Threshold (ethr) on eigenvalues was too large:
     Diagonalizing with lowered threshold

     Davidson diagonalization with overlap
     ethr =  7.75E-04,  avg # of iterations =  1.0

     total cpu time spent up to now is        0.1 secs

     total energy              =     -15.80938593 Ry
     Harris-Foulkes estimate   =     -15.83039090 Ry
     estimated scf accuracy    <       0.06209745 Ry

     iteration #  2     ecut=    12.83 Ry     beta=0.70
     Davidson diagonalization with overlap
     ethr =  7.76E-04,  avg # of iterations =  1.0

     total cpu time spent up to now is        0.1 secs

     total energy              =     -15.81241710 Ry
     Harris-Foulkes estimate   =     -15.81274088 Ry
     estimated scf accuracy    <       0.00221535 Ry

     iteration #  3     ecut=    12.83 Ry     beta=0.70
     Davidson diagonalization with overlap
     ethr =  2.77E-05,  avg # of iterations =  2.0

     total cpu time spent up to now is        0.2 secs

     total energy              =     -15.81281102 Ry
     Harris-Foulkes estimate   =     -15.81283686 Ry
     estimated scf accuracy    <       0.00006480 Ry

     iteration #  4     ecut=    12.83 Ry     beta=0.70
     Davidson diagonalization with overlap
     ethr =  8.10E-07,  avg # of iterations =  2.2

     total cpu time spent up to now is        0.2 secs

     total energy              =     -15.81282514 Ry
     Harris-Foulkes estimate   =     -15.81282741 Ry
     estimated scf accuracy    <       0.00000528 Ry

     iteration #  5     ecut=    12.83 Ry     beta=0.70
     Davidson diagonalization with overlap
     ethr =  6.60E-08,  avg # of iterations =  2.2

     total cpu time spent up to now is        0.2 secs

     total energy              =     -15.81282595 Ry
     Harris-Foulkes estimate   =     -15.81282597 Ry
     estimated scf accuracy    <       0.00000005 Ry

     iteration #  6     ecut=    12.83 Ry     beta=0.70
     Davidson diagonalization with overlap
     ethr =  6.18E-10,  avg # of iterations =  2.7

     total cpu time spent up to now is        0.2 secs

     End of self-consistent calculation

          k = 0.0000 0.0000 0.0000 (   181 PWs)   bands (ev):

    -5.7115   6.3120   6.3120   6.3120

          k =-0.2000 0.2000-0.2000 (   199 PWs)   bands (ev):

    -5.1951   3.2773   5.7057   5.7057

          k =-0.4000 0.4000-0.4000 (   204 PWs)   bands (ev):

    -3.8078  -0.0500   5.1360   5.1360

          k = 0.0000 0.4000 0.0000 (   202 PWs)   bands (ev):

    -5.0184   3.7271   4.7630   4.7630

          k =-0.2000 0.6000-0.2000 (   205 PWs)   bands (ev):

    -3.8627   0.9818   3.6136   4.2380

          k = 0.6000-0.2000 0.6000 (   209 PWs)   bands (ev):

    -2.9469  -0.4614   2.7803   4.5298

          k = 0.4000 0.0000 0.4000 (   208 PWs)   bands (ev):

    -4.3616   1.8269   3.1985   5.4266

          k = 0.0000 0.8000 0.0000 (   206 PWs)   bands (ev):

    -2.9769   0.1493   3.5169   3.5169

          k = 0.8000 0.0000 0.8000 (   208 PWs)   bands (ev):

    -1.7385  -1.1448   2.0888   3.6403

          k = 0.6000-0.2000 1.0000 (   210 PWs)   bands (ev):

    -2.5195  -0.2499   2.1825   3.1988

     highest occupied level (ev):     6.3120

!    total energy              =     -15.81282597 Ry
     Harris-Foulkes estimate   =     -15.81282597 Ry
     estimated scf accuracy    <          8.0E-10 Ry

     The total energy is the sum of the following terms:

     one-electron contribution =       4.81982354 Ry
     hartree contribution      =       1.07891307 Ry
     xc contribution           =      -4.81180395 Ry
     ewald contribution        =     -16.89975863 Ry

     convergence has been achieved in   6 iterations

     Forces acting on atoms (Ry/au):

     atom    1 type  1   force =    -0.00000000   -0.00000000    0.00000000
     atom    2 type  1   force =     0.00000000    0.00000000   -0.00000000

     Total force =     0.000000     Total SCF correction =     0.000000


     entering subroutine stress ...

          total   stress  (Ry/bohr**3)                   (kbar)     P=  -27.68
  -0.00018819  -0.00000000   0.00000000        -27.68     -0.00      0.00
  -0.00000000  -0.00018819   0.00000000         -0.00    -27.68      0.00
   0.00000000   0.00000000  -0.00018819          0.00      0.00    -27.68


     Writing output data file silicon.save

     init_run     :      0.04s CPU      0.05s WALL (       1 calls)
     electrons    :      0.18s CPU      0.18s WALL (       1 calls)
     forces       :      0.01s CPU      0.01s WALL (       1 calls)
     stress       :      0.02s CPU      0.02s WALL (       1 calls)

     Called by init_run:
     wfcinit      :      0.02s CPU      0.02s WALL (       1 calls)
     potinit      :      0.00s CPU      0.00s WALL (       1 calls)

     Called by electrons:
     c_bands      :      0.14s CPU      0.15s WALL (       7 calls)
     sum_band     :      0.03s CPU      0.03s WALL (       7 calls)
     v_of_rho     :      0.00s CPU      0.00s WALL (       7 calls)
     mix_rho      :      0.00s CPU      0.00s WALL (       7 calls)

     Called by c_bands:
     init_us_2    :      0.01s CPU      0.01s WALL (     170 calls)
     cegterg      :      0.14s CPU      0.14s WALL (      70 calls)

     Called by sum_band:

     Called by *egterg:
     h_psi        :      0.14s CPU      0.15s WALL (     211 calls)
     g_psi        :      0.00s CPU      0.00s WALL (     131 calls)
     cdiaghg      :      0.01s CPU      0.01s WALL (     191 calls)

     Called by h_psi:
     h_psi:pot    :      0.14s CPU      0.15s WALL (     211 calls)
     h_psi:calbec :      0.00s CPU      0.00s WALL (     211 calls)
     vloc_psi     :      0.14s CPU      0.14s WALL (     211 calls)
     add_vuspsi   :      0.00s CPU      0.00s WALL (     211 calls)

     General routines
     calbec       :      0.01s CPU      0.00s WALL (     261 calls)
     fft          :      0.02s CPU      0.01s WALL (      34 calls)
     fftw         :      0.15s CPU      0.15s WALL (    1936 calls)
     davcio       :      0.00s CPU      0.00s WALL (      10 calls)

     Parallel routines
     fft_scatter  :      0.00s CPU      0.01s WALL (    1970 calls)

     PWSCF        :     0.32s CPU         0.39s WALL


   This run was terminated on:  16: 0:22  16Apr2018            

=------------------------------------------------------------------------------=
   JOB DONE.
=------------------------------------------------------------------------------=
