
     Program PWSCF v.6.0 (svn rev. 13079) starts on 16Apr2018 at 16:25:31 

     This program is part of the open-source Quantum ESPRESSO suite
     for quantum simulation of materials; please cite
         "P. Giannozzi et al., J. Phys.:Condens. Matter 21 395502 (2009);
          URL http://www.quantum-espresso.org", 
     in publications or presentations arising from this work. More details at
     http://www.quantum-espresso.org/quote

     Parallel version (MPI), running on     1 processors
     Waiting for input...
     Reading input from standard input
     Message from routine read_cards :
     DEPRECATED: no units specified in ATOMIC_POSITIONS card
     Message from routine read_cards :
     ATOMIC_POSITIONS: units set to alat

     Current dimensions of program PWSCF are:
     Max number of different atomic species (ntypx) = 10
     Max number of k-points (npk) =  40000
     Max angular momentum in pseudopotentials (lmaxx) =  3

     Subspace diagonalization in iterative solution of the eigenvalue problem:
     a serial algorithm will be used


     G-vector sticks info
     --------------------
     sticks:   dense  smooth     PW     G-vecs:    dense   smooth      PW
     Sum         151     151     55                 1243     1243     283



     bravais-lattice index     =            2
     lattice parameter (alat)  =       7.5000  a.u.
     unit-cell volume          =     105.4688 (a.u.)^3
     number of atoms/cell      =            1
     number of atomic types    =            1
     number of electrons       =         3.00
     number of Kohn-Sham states=            6
     kinetic-energy cutoff     =      19.0000  Ry
     charge density cutoff     =      76.0000  Ry
     convergence threshold     =      1.0E-06
     mixing beta               =       0.7000
     number of iterations used =            8  plain     mixing
     Exchange-correlation      =  SLA  PZ   NOGX NOGC ( 1  1  0  0 0 0)

     celldm(1)=   7.500000  celldm(2)=   0.000000  celldm(3)=   0.000000
     celldm(4)=   0.000000  celldm(5)=   0.000000  celldm(6)=   0.000000

     crystal axes: (cart. coord. in units of alat)
               a(1) = (  -0.500000   0.000000   0.500000 )  
               a(2) = (   0.000000   0.500000   0.500000 )  
               a(3) = (  -0.500000   0.500000   0.000000 )  

     reciprocal axes: (cart. coord. in units 2 pi/alat)
               b(1) = ( -1.000000 -1.000000  1.000000 )  
               b(2) = (  1.000000  1.000000  1.000000 )  
               b(3) = ( -1.000000  1.000000 -1.000000 )  


     PseudoPot. # 1 for Al read from file:
     ../../../PP/Al.pz-vbc.UPF
     MD5 check sum: f06ceae8da0fe5c02c98e3688433298c
     Pseudo is Norm-conserving, Zval =  3.0
     Generated by new atomic code, or converted to UPF format
     Using radial grid of  171 points,  2 beta functions with: 
                l(1) =   0
                l(2) =   1

     atomic species   valence    mass     pseudopotential
        Al             3.00    26.98000     Al( 1.00)

     48 Sym. Ops., with inversion, found



   Cartesian axes

     site n.     atom                  positions (alat units)
         1           Al  tau(   1) = (   0.0000000   0.0000000   0.0000000  )

     number of k points=    72  Marzari-Vanderbilt smearing, width (Ry)=  0.0500
                       cart. coord. in units 2pi/alat
        k(    1) = (   0.0000000   0.0000000   0.0000000), wk =   0.0011574
        k(    2) = (  -0.0833333   0.0833333  -0.0833333), wk =   0.0092593
        k(    3) = (  -0.1666667   0.1666667  -0.1666667), wk =   0.0092593
        k(    4) = (  -0.2500000   0.2500000  -0.2500000), wk =   0.0092593
        k(    5) = (  -0.3333333   0.3333333  -0.3333333), wk =   0.0092593
        k(    6) = (  -0.4166667   0.4166667  -0.4166667), wk =   0.0092593
        k(    7) = (   0.5000000  -0.5000000   0.5000000), wk =   0.0046296
        k(    8) = (   0.0000000   0.1666667   0.0000000), wk =   0.0069444
        k(    9) = (  -0.0833333   0.2500000  -0.0833333), wk =   0.0277778
        k(   10) = (  -0.1666667   0.3333333  -0.1666667), wk =   0.0277778
        k(   11) = (  -0.2500000   0.4166667  -0.2500000), wk =   0.0277778
        k(   12) = (  -0.3333333   0.5000000  -0.3333333), wk =   0.0277778
        k(   13) = (   0.5833333  -0.4166667   0.5833333), wk =   0.0277778
        k(   14) = (   0.5000000  -0.3333333   0.5000000), wk =   0.0277778
        k(   15) = (   0.4166667  -0.2500000   0.4166667), wk =   0.0277778
        k(   16) = (   0.3333333  -0.1666667   0.3333333), wk =   0.0277778
        k(   17) = (   0.2500000  -0.0833333   0.2500000), wk =   0.0277778
        k(   18) = (   0.1666667  -0.0000000   0.1666667), wk =   0.0138889
        k(   19) = (   0.0000000   0.3333333   0.0000000), wk =   0.0069444
        k(   20) = (  -0.0833333   0.4166667  -0.0833333), wk =   0.0277778
        k(   21) = (  -0.1666667   0.5000000  -0.1666667), wk =   0.0277778
        k(   22) = (  -0.2500000   0.5833333  -0.2500000), wk =   0.0277778
        k(   23) = (   0.6666667  -0.3333333   0.6666667), wk =   0.0277778
        k(   24) = (   0.5833333  -0.2500000   0.5833333), wk =   0.0277778
        k(   25) = (   0.5000000  -0.1666667   0.5000000), wk =   0.0277778
        k(   26) = (   0.4166667  -0.0833333   0.4166667), wk =   0.0277778
        k(   27) = (   0.3333333   0.0000000   0.3333333), wk =   0.0138889
        k(   28) = (   0.0000000   0.5000000   0.0000000), wk =   0.0069444
        k(   29) = (  -0.0833333   0.5833333  -0.0833333), wk =   0.0277778
        k(   30) = (  -0.1666667   0.6666667  -0.1666667), wk =   0.0277778
        k(   31) = (   0.7500000  -0.2500000   0.7500000), wk =   0.0277778
        k(   32) = (   0.6666667  -0.1666667   0.6666667), wk =   0.0277778
        k(   33) = (   0.5833333  -0.0833333   0.5833333), wk =   0.0277778
        k(   34) = (   0.5000000   0.0000000   0.5000000), wk =   0.0138889
        k(   35) = (   0.0000000   0.6666667   0.0000000), wk =   0.0069444
        k(   36) = (  -0.0833333   0.7500000  -0.0833333), wk =   0.0277778
        k(   37) = (   0.8333333  -0.1666667   0.8333333), wk =   0.0277778
        k(   38) = (   0.7500000  -0.0833333   0.7500000), wk =   0.0277778
        k(   39) = (   0.6666667  -0.0000000   0.6666667), wk =   0.0138889
        k(   40) = (   0.0000000   0.8333333   0.0000000), wk =   0.0069444
        k(   41) = (   0.9166667  -0.0833333   0.9166667), wk =   0.0277778
        k(   42) = (   0.8333333   0.0000000   0.8333333), wk =   0.0138889
        k(   43) = (   0.0000000  -1.0000000   0.0000000), wk =   0.0034722
        k(   44) = (  -0.1666667   0.3333333   0.0000000), wk =   0.0277778
        k(   45) = (  -0.2500000   0.4166667  -0.0833333), wk =   0.0555556
        k(   46) = (  -0.3333333   0.5000000  -0.1666667), wk =   0.0555556
        k(   47) = (   0.5833333  -0.4166667   0.7500000), wk =   0.0555556
        k(   48) = (   0.5000000  -0.3333333   0.6666667), wk =   0.0277778
        k(   49) = (  -0.1666667   0.5000000   0.0000000), wk =   0.0277778
        k(   50) = (  -0.2500000   0.5833333  -0.0833333), wk =   0.0555556
        k(   51) = (   0.6666667  -0.3333333   0.8333333), wk =   0.0555556
        k(   52) = (   0.5833333  -0.2500000   0.7500000), wk =   0.0555556
        k(   53) = (   0.5000000  -0.1666667   0.6666667), wk =   0.0555556
        k(   54) = (   0.4166667  -0.0833333   0.5833333), wk =   0.0555556
        k(   55) = (   0.3333333   0.0000000   0.5000000), wk =   0.0277778
        k(   56) = (  -0.1666667   0.6666667  -0.0000000), wk =   0.0277778
        k(   57) = (   0.7500000  -0.2500000   0.9166667), wk =   0.0555556
        k(   58) = (   0.6666667  -0.1666667   0.8333333), wk =   0.0555556
        k(   59) = (   0.5833333  -0.0833333   0.7500000), wk =   0.0555556
        k(   60) = (   0.5000000   0.0000000   0.6666667), wk =   0.0277778
        k(   61) = (   0.8333333  -0.1666667   1.0000000), wk =   0.0277778
        k(   62) = (   0.7500000  -0.0833333   0.9166667), wk =   0.0555556
        k(   63) = (   0.6666667   0.0000000   0.8333333), wk =   0.0277778
        k(   64) = (  -0.1666667  -1.0000000  -0.0000000), wk =   0.0138889
        k(   65) = (   0.6666667  -0.3333333   1.0000000), wk =   0.0277778
        k(   66) = (   0.5833333  -0.2500000   0.9166667), wk =   0.0555556
        k(   67) = (   0.5000000  -0.1666667   0.8333333), wk =   0.0277778
        k(   68) = (   0.6666667  -0.1666667   1.0000000), wk =   0.0277778
        k(   69) = (   0.5833333  -0.0833333   0.9166667), wk =   0.0555556
        k(   70) = (   0.5000000   0.0000000   0.8333333), wk =   0.0277778
        k(   71) = (  -0.3333333  -1.0000000   0.0000000), wk =   0.0138889
        k(   72) = (  -0.5000000  -1.0000000   0.0000000), wk =   0.0069444

     Dense  grid:     1243 G-vectors     FFT dimensions: (  15,  15,  15)

     Estimated max dynamical RAM per process >       1.80Mb

     Initial potential from superposition of free atoms

     starting charge    2.99794, renormalised to    3.00000
     Starting wfc are    4 randomized atomic wfcs +    2 random wfc

     total cpu time spent up to now is        0.1 secs

     per-process dynamical memory:     5.6 Mb

     Self-consistent Calculation

     iteration #  1     ecut=    19.00 Ry     beta=0.70
     Davidson diagonalization with overlap
     ethr =  1.00E-02,  avg # of iterations =  4.4

     Threshold (ethr) on eigenvalues was too large:
     Diagonalizing with lowered threshold

     Davidson diagonalization with overlap
     ethr =  1.93E-04,  avg # of iterations =  1.4

     total cpu time spent up to now is        0.4 secs

     total energy              =      -4.18908445 Ry
     Harris-Foulkes estimate   =      -4.18985201 Ry
     estimated scf accuracy    <       0.00578676 Ry

     iteration #  2     ecut=    19.00 Ry     beta=0.70
     Davidson diagonalization with overlap
     ethr =  1.93E-04,  avg # of iterations =  1.0

     total cpu time spent up to now is        0.6 secs

     total energy              =      -4.18908501 Ry
     Harris-Foulkes estimate   =      -4.18910885 Ry
     estimated scf accuracy    <       0.00044904 Ry

     iteration #  3     ecut=    19.00 Ry     beta=0.70
     Davidson diagonalization with overlap
     ethr =  1.50E-05,  avg # of iterations =  1.5

     total cpu time spent up to now is        0.7 secs

     End of self-consistent calculation

          k = 0.0000 0.0000 0.0000 (   169 PWs)   bands (ev):

    -3.1926  21.1687  21.1688  22.5369  22.5369  22.5369

          k =-0.0833 0.0833-0.0833 (   153 PWs)   bands (ev):

    -2.9946  18.4507  20.5559  20.5560  23.2896  23.4517

          k =-0.1667 0.1667-0.1667 (   153 PWs)   bands (ev):

    -2.4032  15.0281  19.8321  19.8321  23.1452  24.5604

          k =-0.2500 0.2500-0.2500 (   150 PWs)   bands (ev):

    -1.4255  11.7789  19.3816  19.3823  22.9541  23.3286

          k =-0.3333 0.3333-0.3333 (   153 PWs)   bands (ev):

    -0.0731   8.7884  19.2408  19.2408  21.8943  21.8944

          k =-0.4167 0.4167-0.4167 (   147 PWs)   bands (ev):

     1.6398   6.0916  19.4195  19.4195  20.7479  20.7480

          k = 0.5000-0.5000 0.5000 (   156 PWs)   bands (ev):

     3.5860   3.8150  19.8837  19.8837  19.9571  19.9571

          k = 0.0000 0.1667 0.0000 (   153 PWs)   bands (ev):

    -2.9287  19.3765  19.3765  19.6591  22.0141  24.7270

          k =-0.0833 0.2500-0.0833 (   153 PWs)   bands (ev):

    -2.4687  16.2479  18.4830  19.7906  22.3736  23.4466

          k =-0.1667 0.3333-0.1667 (   149 PWs)   bands (ev):

    -1.6201  12.9678  17.9061  19.4603  21.2922  24.2111

          k =-0.2500 0.4167-0.2500 (   150 PWs)   bands (ev):

    -0.3932   9.9026  17.6496  19.2476  19.7218  24.2466

          k =-0.3333 0.5000-0.3333 (   148 PWs)   bands (ev):

     1.1985   7.1141  17.7151  18.3966  19.3897  23.0159

          k = 0.5833-0.4167 0.5833 (   151 PWs)   bands (ev):

     3.1329   4.6337  17.4492  18.1033  19.8089  22.0858

          k = 0.5000-0.3333 0.5000 (   149 PWs)   bands (ev):

     2.4530   5.4227  16.8316  18.8167  20.5635  21.4793

          k = 0.4167-0.2500 0.4167 (   147 PWs)   bands (ev):

     0.6285   8.0089  16.5497  19.8495  21.2026  21.6420

          k = 0.3333-0.1667 0.3333 (   149 PWs)   bands (ev):

    -0.8435  10.8876  16.6071  21.0190  21.4180  23.0164

          k = 0.2500-0.0833 0.2500 (   151 PWs)   bands (ev):

    -1.9457  14.0072  17.0180  21.4726  22.8137  24.0389

          k = 0.1667-0.0000 0.1667 (   157 PWs)   bands (ev):

    -2.6656  17.0157  18.0392  21.6817  22.8064  23.8649

          k = 0.0000 0.3333 0.0000 (   153 PWs)   bands (ev):

    -2.1414  17.4622  17.4622  17.5376  20.8354  21.0084

          k =-0.0833 0.4167-0.0833 (   150 PWs)   bands (ev):

    -1.4252  14.4038  16.7687  18.0599  18.9400  21.2438

          k =-0.1667 0.5000-0.1667 (   150 PWs)   bands (ev):

    -0.3288  11.3268  16.3985  17.1026  18.1022  23.0580

          k =-0.2500 0.5833-0.2500 (   147 PWs)   bands (ev):

     1.1351   8.4740  15.7035  16.3527  18.1300  25.3303

          k = 0.6667-0.3333 0.6667 (   146 PWs)   bands (ev):

     2.9485   5.9065  14.6241  16.6294  18.4713  24.5966

          k = 0.5833-0.2500 0.5833 (   149 PWs)   bands (ev):

     3.6243   5.1188  13.8871  17.2305  19.1491  23.8858

          k = 0.5000-0.1667 0.5000 (   145 PWs)   bands (ev):

     1.7024   7.5671  13.5100  18.1589  20.1610  23.4952

          k = 0.4167-0.0833 0.4167 (   149 PWs)   bands (ev):

     0.1190  10.2694  13.5352  19.4090  21.4820  23.4059

          k = 0.3333 0.0000 0.3333 (   146 PWs)   bands (ev):

    -1.1016  12.7989  14.3539  20.9595  23.0616  23.2173

          k = 0.0000 0.5000 0.0000 (   149 PWs)   bands (ev):

    -0.8430  15.7793  15.9622  15.9622  16.6818  19.6139

          k =-0.0833 0.5833-0.0833 (   147 PWs)   bands (ev):

     0.1192  12.9918  14.7853  15.4829  16.7137  20.0967

          k =-0.1667 0.6667-0.1667 (   145 PWs)   bands (ev):

     1.4498  10.1367  13.2356  15.3274  16.9160  22.0998

          k = 0.7500-0.2500 0.7500 (   145 PWs)   bands (ev):

     3.1308   7.5121  12.0235  15.4935  17.2107  24.6875

          k = 0.6667-0.1667 0.6667 (   152 PWs)   bands (ev):

     4.9941   5.3180  11.1705  15.9809  17.8065  26.6374

          k = 0.5833-0.0833 0.5833 (   147 PWs)   bands (ev):

     3.1347   7.4281  10.7344  16.7979  18.7347  26.1482

          k = 0.5000 0.0000 0.5000 (   144 PWs)   bands (ev):

     1.4507   9.5086  11.1565  17.9404  19.9794  26.2270

          k = 0.0000 0.6667 0.0000 (   141 PWs)   bands (ev):

     0.9454  12.7367  14.5007  14.8964  14.8964  18.5870

          k =-0.0833 0.7500-0.0833 (   143 PWs)   bands (ev):

     2.1374  11.0073  12.0992  14.6313  15.7468  19.2669

          k = 0.8333-0.1667 0.8333 (   144 PWs)   bands (ev):

     3.6741   9.2780   9.8780  14.6880  16.1843  21.4931

          k = 0.7500-0.0833 0.7500 (   144 PWs)   bands (ev):

     5.4935   7.0090   8.8304  15.0659  16.7299  24.3228

          k = 0.6667-0.0000 0.6667 (   142 PWs)   bands (ev):

     4.9050   7.1749   8.7351  15.7686  17.5750  27.3618

          k = 0.0000 0.8333 0.0000 (   142 PWs)   bands (ev):

     3.1839   9.2086  13.7279  14.2578  14.2578  17.9205

          k = 0.9167-0.0833 0.9167 (   148 PWs)   bands (ev):

     4.5429   7.7654  11.6051  14.2048  15.2607  18.8323

          k = 0.8333 0.0000 0.8333 (   146 PWs)   bands (ev):

     5.7835   7.1222   9.2592  14.4744  15.9367  21.2852

          k = 0.0000-1.0000 0.0000 (   150 PWs)   bands (ev):

     5.3214   6.6398  13.4696  14.0444  14.0444  17.6899

          k =-0.1667 0.3333 0.0000 (   151 PWs)   bands (ev):

    -1.8804  14.9173  16.2028  20.4964  21.1089  22.3930

          k =-0.2500 0.4167-0.0833 (   149 PWs)   bands (ev):

    -0.9078  12.1443  15.2912  19.3200  20.6973  23.6752

          k =-0.3333 0.5000-0.1667 (   147 PWs)   bands (ev):

     0.4377   9.2330  15.0668  17.8127  20.6782  23.4747

          k = 0.5833-0.4167 0.7500 (   147 PWs)   bands (ev):

     2.1407   6.5665  15.2071  16.6437  20.8911  22.3519

          k = 0.5000-0.3333 0.6667 (   150 PWs)   bands (ev):

     4.0573   4.3264  15.5221  15.9852  21.2435  21.6831

          k =-0.1667 0.5000 0.0000 (   148 PWs)   bands (ev):

    -0.5855  13.2704  14.6561  16.9695  18.9414  21.1661

          k =-0.2500 0.5833-0.0833 (   145 PWs)   bands (ev):

     0.6285  10.7295  13.8950  15.3524  19.4353  22.6869

          k = 0.6667-0.3333 0.8333 (   145 PWs)   bands (ev):

     2.2023   8.0384  13.6502  14.2744  19.6791  24.6512

          k = 0.5833-0.2500 0.7500 (   145 PWs)   bands (ev):

     4.1082   5.6060  12.9151  14.4177  20.1451  24.0467

          k = 0.5000-0.1667 0.6667 (   150 PWs)   bands (ev):

     3.4417   6.3669  12.3314  15.1242  20.9067  23.4265

          k = 0.4167-0.0833 0.5833 (   147 PWs)   bands (ev):

     1.6391   8.8500  12.1399  16.1941  21.9474  23.0647

          k = 0.3333 0.0000 0.5000 (   148 PWs)   bands (ev):

     0.1829  11.1507  12.7718  17.5995  22.4377  23.1222

          k =-0.1667 0.6667-0.0000 (   144 PWs)   bands (ev):

     1.1978  12.0902  12.8325  13.7585  17.7882  20.2019

          k = 0.7500-0.2500 0.9167 (   146 PWs)   bands (ev):

     2.6353   9.7654  11.4996  13.1430  18.5324  21.9274

          k = 0.6667-0.1667 0.8333 (   146 PWs)   bands (ev):

     4.4050   7.3131  10.4406  13.3269  19.0198  24.5374

          k = 0.5833-0.0833 0.7500 (   147 PWs)   bands (ev):

     5.0779   6.4845   9.7657  13.9294  19.7217  26.1268

          k = 0.5000 0.0000 0.6667 (   146 PWs)   bands (ev):

     3.1959   8.3389   9.9463  14.8922  20.7140  25.3249

          k = 0.8333-0.1667 1.0000 (   146 PWs)   bands (ev):

     3.4290   9.4328  11.3805  12.9635  17.0913  19.5815

          k = 0.7500-0.0833 0.9167 (   145 PWs)   bands (ev):

     5.0226   8.2088   9.3813  12.6416  18.0716  21.5276

          k = 0.6667 0.0000 0.8333 (   144 PWs)   bands (ev):

     6.4781   6.9700   8.0547  13.0861  18.7949  24.3769

          k =-0.1667-1.0000-0.0000 (   148 PWs)   bands (ev):

     5.5523   6.8897  11.1435  12.7279  16.8585  19.3677

          k = 0.6667-0.3333 1.0000 (   147 PWs)   bands (ev):

     1.9519   9.9757  11.5547  13.8174  21.3402  22.9947

          k = 0.5833-0.2500 0.9167 (   147 PWs)   bands (ev):

     3.6236   7.8980  11.1158  12.6480  22.1605  23.6434

          k = 0.5000-0.1667 0.8333 (   150 PWs)   bands (ev):

     5.4619   5.7965  11.2751  12.0760  22.5354  23.1451

          k = 0.6667-0.1667 1.0000 (   150 PWs)   bands (ev):

     4.1629   9.2713   9.9719  11.2030  20.6526  22.5234

          k = 0.5833-0.0833 0.9167 (   149 PWs)   bands (ev):

     5.9694   7.4072   9.1985  10.9100  21.7497  24.6296

          k = 0.5000 0.0000 0.8333 (   149 PWs)   bands (ev):

     5.3709   7.6388   9.1583  11.5422  22.5812  24.6787

          k =-0.3333-1.0000 0.0000 (   150 PWs)   bands (ev):

     6.2458   7.6071   9.0369  10.8183  20.4215  22.3450

          k =-0.5000-1.0000 0.0000 (   144 PWs)   bands (ev):

     7.4067   7.4067   8.3665   9.6305  24.4555  24.4555

     the Fermi energy is     8.2194 ev

!    total energy              =      -4.18908801 Ry
     Harris-Foulkes estimate   =      -4.18908790 Ry
     estimated scf accuracy    <       0.00000030 Ry

     The total energy is the sum of the following terms:

     one-electron contribution =       2.93724555 Ry
     hartree contribution      =       0.00986405 Ry
     xc contribution           =      -1.63475506 Ry
     ewald contribution        =      -5.50183451 Ry
     smearing contrib. (-TS)   =       0.00039196 Ry

     convergence has been achieved in   3 iterations

     Forces acting on atoms (Ry/au):

     atom    1 type  1   force =     0.00000000    0.00000000    0.00000000

     Total force =     0.000000     Total SCF correction =     0.000000


     entering subroutine stress ...

          total   stress  (Ry/bohr**3)                   (kbar)     P=   -9.30
  -0.00006324  -0.00000000   0.00000000         -9.30     -0.00      0.00
  -0.00000000  -0.00006324  -0.00000000         -0.00     -9.30     -0.00
   0.00000000  -0.00000000  -0.00006324          0.00     -0.00     -9.30


     Writing output data file aluminium.save

     init_run     :      0.06s CPU      0.06s WALL (       1 calls)
     electrons    :      0.57s CPU      0.61s WALL (       1 calls)
     forces       :      0.01s CPU      0.01s WALL (       1 calls)
     stress       :      0.05s CPU      0.05s WALL (       1 calls)

     Called by init_run:
     wfcinit      :      0.04s CPU      0.05s WALL (       1 calls)
     potinit      :      0.00s CPU      0.00s WALL (       1 calls)

     Called by electrons:
     c_bands      :      0.50s CPU      0.53s WALL (       4 calls)
     sum_band     :      0.06s CPU      0.08s WALL (       4 calls)
     v_of_rho     :      0.00s CPU      0.00s WALL (       4 calls)
     mix_rho      :      0.00s CPU      0.00s WALL (       4 calls)

     Called by c_bands:
     init_us_2    :      0.03s CPU      0.03s WALL (     792 calls)
     cegterg      :      0.47s CPU      0.50s WALL (     288 calls)

     Called by sum_band:

     Called by *egterg:
     h_psi        :      0.29s CPU      0.36s WALL (     959 calls)
     g_psi        :      0.00s CPU      0.00s WALL (     599 calls)
     cdiaghg      :      0.09s CPU      0.07s WALL (     815 calls)

     Called by h_psi:
     h_psi:pot    :      0.28s CPU      0.35s WALL (     959 calls)
     h_psi:calbec :      0.02s CPU      0.01s WALL (     959 calls)
     vloc_psi     :      0.26s CPU      0.32s WALL (     959 calls)
     add_vuspsi   :      0.01s CPU      0.01s WALL (     959 calls)

     General routines
     calbec       :      0.02s CPU      0.02s WALL (    1319 calls)
     fft          :      0.00s CPU      0.00s WALL (      22 calls)
     fftw         :      0.27s CPU      0.31s WALL (   11456 calls)
     davcio       :      0.00s CPU      0.00s WALL (      72 calls)

     Parallel routines
     fft_scatter  :      0.04s CPU      0.05s WALL (   11478 calls)

     PWSCF        :     0.83s CPU         0.89s WALL


   This run was terminated on:  16:25:32  16Apr2018            

=------------------------------------------------------------------------------=
   JOB DONE.
=------------------------------------------------------------------------------=
