
     Program PWSCF v.6.0 (svn rev. 13079) starts on 16Apr2018 at 16: 0:26 

     This program is part of the open-source Quantum ESPRESSO suite
     for quantum simulation of materials; please cite
         "P. Giannozzi et al., J. Phys.:Condens. Matter 21 395502 (2009);
          URL http://www.quantum-espresso.org", 
     in publications or presentations arising from this work. More details at
     http://www.quantum-espresso.org/quote

     Parallel version (MPI), running on     1 processors
     Waiting for input...
     Reading input from standard input

     Current dimensions of program PWSCF are:
     Max number of different atomic species (ntypx) = 10
     Max number of k-points (npk) =  40000
     Max angular momentum in pseudopotentials (lmaxx) =  3

     Subspace diagonalization in iterative solution of the eigenvalue problem:
     a serial algorithm will be used


     G-vector sticks info
     --------------------
     sticks:   dense  smooth     PW     G-vecs:    dense   smooth      PW
     Sum         349     349    121                 4279     4279     821



     bravais-lattice index     =            2
     lattice parameter (alat)  =      10.2000  a.u.
     unit-cell volume          =     265.3020 (a.u.)^3
     number of atoms/cell      =            2
     number of atomic types    =            1
     number of electrons       =         8.00
     number of Kohn-Sham states=            4
     kinetic-energy cutoff     =      24.0870  Ry
     charge density cutoff     =      96.3480  Ry
     convergence threshold     =      1.0E-08
     mixing beta               =       0.7000
     number of iterations used =            8  plain     mixing
     Exchange-correlation      =  SLA  PZ   NOGX NOGC ( 1  1  0  0 0 0)

     celldm(1)=  10.200000  celldm(2)=   0.000000  celldm(3)=   0.000000
     celldm(4)=   0.000000  celldm(5)=   0.000000  celldm(6)=   0.000000

     crystal axes: (cart. coord. in units of alat)
               a(1) = (  -0.500000   0.000000   0.500000 )  
               a(2) = (   0.000000   0.500000   0.500000 )  
               a(3) = (  -0.500000   0.500000   0.000000 )  

     reciprocal axes: (cart. coord. in units 2 pi/alat)
               b(1) = ( -1.000000 -1.000000  1.000000 )  
               b(2) = (  1.000000  1.000000  1.000000 )  
               b(3) = ( -1.000000  1.000000 -1.000000 )  


     PseudoPot. # 1 for Si read from file:
     ../../../PP/Si.pz-vbc.UPF
     MD5 check sum: 6dfa03ddd5817404712e03e4d12deb78
     Pseudo is Norm-conserving, Zval =  4.0
     Generated by new atomic code, or converted to UPF format
     Using radial grid of  431 points,  2 beta functions with: 
                l(1) =   0
                l(2) =   1

     atomic species   valence    mass     pseudopotential
        Si             4.00    28.08600     Si( 1.00)

     48 Sym. Ops., with inversion, found (24 have fractional translation)



   Cartesian axes

     site n.     atom                  positions (alat units)
         1           Si  tau(   1) = (   0.0000000   0.0000000   0.0000000  )
         2           Si  tau(   2) = (  -0.2500000   0.2500000   0.2500000  )

     number of k points=    10
                       cart. coord. in units 2pi/alat
        k(    1) = (   0.0000000   0.0000000   0.0000000), wk =   0.0160000
        k(    2) = (  -0.2000000   0.2000000  -0.2000000), wk =   0.1280000
        k(    3) = (  -0.4000000   0.4000000  -0.4000000), wk =   0.1280000
        k(    4) = (   0.0000000   0.4000000   0.0000000), wk =   0.0960000
        k(    5) = (  -0.2000000   0.6000000  -0.2000000), wk =   0.3840000
        k(    6) = (   0.6000000  -0.2000000   0.6000000), wk =   0.3840000
        k(    7) = (   0.4000000   0.0000000   0.4000000), wk =   0.1920000
        k(    8) = (   0.0000000   0.8000000   0.0000000), wk =   0.0960000
        k(    9) = (   0.8000000   0.0000000   0.8000000), wk =   0.1920000
        k(   10) = (   0.6000000  -0.2000000   1.0000000), wk =   0.3840000

     Dense  grid:     4279 G-vectors     FFT dimensions: (  24,  24,  24)

     Estimated max dynamical RAM per process >       3.22Mb

     Initial potential from superposition of free atoms

     starting charge    7.99901, renormalised to    8.00000
     Starting wfc are    8 randomized atomic wfcs

     total cpu time spent up to now is        0.1 secs

     per-process dynamical memory:     6.5 Mb

     Self-consistent Calculation

     iteration #  1     ecut=    24.09 Ry     beta=0.70
     Davidson diagonalization with overlap
     ethr =  1.00E-02,  avg # of iterations =  2.0

     Threshold (ethr) on eigenvalues was too large:
     Diagonalizing with lowered threshold

     Davidson diagonalization with overlap
     ethr =  8.18E-04,  avg # of iterations =  1.0

     total cpu time spent up to now is        0.2 secs

     total energy              =     -15.84261530 Ry
     Harris-Foulkes estimate   =     -15.86456084 Ry
     estimated scf accuracy    <       0.06419214 Ry

     iteration #  2     ecut=    24.09 Ry     beta=0.70
     Davidson diagonalization with overlap
     ethr =  8.02E-04,  avg # of iterations =  1.0

     total cpu time spent up to now is        0.2 secs

     total energy              =     -15.84576183 Ry
     Harris-Foulkes estimate   =     -15.84608184 Ry
     estimated scf accuracy    <       0.00225861 Ry

     iteration #  3     ecut=    24.09 Ry     beta=0.70
     Davidson diagonalization with overlap
     ethr =  2.82E-05,  avg # of iterations =  2.0

     total cpu time spent up to now is        0.2 secs

     total energy              =     -15.84614591 Ry
     Harris-Foulkes estimate   =     -15.84617548 Ry
     estimated scf accuracy    <       0.00007145 Ry

     iteration #  4     ecut=    24.09 Ry     beta=0.70
     Davidson diagonalization with overlap
     ethr =  8.93E-07,  avg # of iterations =  2.1

     total cpu time spent up to now is        0.3 secs

     total energy              =     -15.84616333 Ry
     Harris-Foulkes estimate   =     -15.84616663 Ry
     estimated scf accuracy    <       0.00000690 Ry

     iteration #  5     ecut=    24.09 Ry     beta=0.70
     Davidson diagonalization with overlap
     ethr =  8.62E-08,  avg # of iterations =  2.2

     total cpu time spent up to now is        0.3 secs

     total energy              =     -15.84616441 Ry
     Harris-Foulkes estimate   =     -15.84616446 Ry
     estimated scf accuracy    <       0.00000011 Ry

     iteration #  6     ecut=    24.09 Ry     beta=0.70
     Davidson diagonalization with overlap
     ethr =  1.31E-09,  avg # of iterations =  2.4

     total cpu time spent up to now is        0.4 secs

     End of self-consistent calculation

          k = 0.0000 0.0000 0.0000 (   531 PWs)   bands (ev):

    -5.8084   6.2525   6.2525   6.2525

          k =-0.2000 0.2000-0.2000 (   531 PWs)   bands (ev):

    -5.2820   3.2241   5.6621   5.6621

          k =-0.4000 0.4000-0.4000 (   528 PWs)   bands (ev):

    -3.8862  -0.0947   5.1077   5.1077

          k = 0.0000 0.4000 0.0000 (   536 PWs)   bands (ev):

    -5.1013   3.6580   4.7308   4.7308

          k =-0.2000 0.6000-0.2000 (   533 PWs)   bands (ev):

    -3.9373   0.9213   3.5790   4.2152

          k = 0.6000-0.2000 0.6000 (   531 PWs)   bands (ev):

    -3.0229  -0.5140   2.7517   4.5061

          k = 0.4000 0.0000 0.4000 (   530 PWs)   bands (ev):

    -4.4346   1.7699   3.1755   5.3941

          k = 0.0000 0.8000 0.0000 (   532 PWs)   bands (ev):

    -3.0497   0.0723   3.5023   3.5023

          k = 0.8000 0.0000 0.8000 (   514 PWs)   bands (ev):

    -1.8090  -1.2121   2.0757   3.6242

          k = 0.6000-0.2000 1.0000 (   523 PWs)   bands (ev):

    -2.5931  -0.3153   2.1671   3.1803

     highest occupied level (ev):     6.2525

!    total energy              =     -15.84616444 Ry
     Harris-Foulkes estimate   =     -15.84616444 Ry
     estimated scf accuracy    <          4.1E-10 Ry

     The total energy is the sum of the following terms:

     one-electron contribution =       4.78656988 Ry
     hartree contribution      =       1.08768321 Ry
     xc contribution           =      -4.82065893 Ry
     ewald contribution        =     -16.89975861 Ry

     convergence has been achieved in   6 iterations

     Forces acting on atoms (Ry/au):

     atom    1 type  1   force =     0.00000000    0.00000000    0.00000000
     atom    2 type  1   force =    -0.00000000   -0.00000000   -0.00000000

     Total force =     0.000000     Total SCF correction =     0.000000


     entering subroutine stress ...

          total   stress  (Ry/bohr**3)                   (kbar)     P=    1.60
   0.00001087  -0.00000000  -0.00000000          1.60     -0.00     -0.00
  -0.00000000   0.00001087   0.00000000         -0.00      1.60      0.00
  -0.00000000   0.00000000   0.00001087         -0.00      0.00      1.60


     Writing output data file silicon.save

     init_run     :      0.06s CPU      0.07s WALL (       1 calls)
     electrons    :      0.30s CPU      0.33s WALL (       1 calls)
     forces       :      0.02s CPU      0.02s WALL (       1 calls)
     stress       :      0.05s CPU      0.05s WALL (       1 calls)

     Called by init_run:
     wfcinit      :      0.03s CPU      0.03s WALL (       1 calls)
     potinit      :      0.00s CPU      0.00s WALL (       1 calls)

     Called by electrons:
     c_bands      :      0.23s CPU      0.24s WALL (       7 calls)
     sum_band     :      0.05s CPU      0.06s WALL (       7 calls)
     v_of_rho     :      0.01s CPU      0.01s WALL (       7 calls)
     mix_rho      :      0.01s CPU      0.00s WALL (       7 calls)

     Called by c_bands:
     init_us_2    :      0.00s CPU      0.01s WALL (     170 calls)
     cegterg      :      0.23s CPU      0.23s WALL (      70 calls)

     Called by sum_band:

     Called by *egterg:
     h_psi        :      0.24s CPU      0.23s WALL (     207 calls)
     g_psi        :      0.00s CPU      0.00s WALL (     127 calls)
     cdiaghg      :      0.00s CPU      0.01s WALL (     187 calls)

     Called by h_psi:
     h_psi:pot    :      0.24s CPU      0.23s WALL (     207 calls)
     h_psi:calbec :      0.00s CPU      0.01s WALL (     207 calls)
     vloc_psi     :      0.23s CPU      0.22s WALL (     207 calls)
     add_vuspsi   :      0.00s CPU      0.01s WALL (     207 calls)

     General routines
     calbec       :      0.01s CPU      0.01s WALL (     257 calls)
     fft          :      0.01s CPU      0.01s WALL (      34 calls)
     fftw         :      0.22s CPU      0.23s WALL (    1936 calls)
     davcio       :      0.00s CPU      0.04s WALL (      10 calls)

     Parallel routines
     fft_scatter  :      0.02s CPU      0.02s WALL (    1970 calls)

     PWSCF        :     0.49s CPU         0.63s WALL


   This run was terminated on:  16: 0:27  16Apr2018            

=------------------------------------------------------------------------------=
   JOB DONE.
=------------------------------------------------------------------------------=
