
     Program PWSCF v.6.0 (svn rev. 13079) starts on 22Jun2018 at 12:52:15 

     This program is part of the open-source Quantum ESPRESSO suite
     for quantum simulation of materials; please cite
         "P. Giannozzi et al., J. Phys.:Condens. Matter 21 395502 (2009);
          URL http://www.quantum-espresso.org", 
     in publications or presentations arising from this work. More details at
     http://www.quantum-espresso.org/quote

     Parallel version (MPI), running on     1 processors
     Waiting for input...
     Reading input from standard input

     Current dimensions of program PWSCF are:
     Max number of different atomic species (ntypx) = 10
     Max number of k-points (npk) =  40000
     Max angular momentum in pseudopotentials (lmaxx) =  3

     Subspace diagonalization in iterative solution of the eigenvalue problem:
     a serial algorithm will be used


     G-vector sticks info
     --------------------
     sticks:   dense  smooth     PW     G-vecs:    dense   smooth      PW
     Sum         511     511    163                 7727     7727    1363



     bravais-lattice index     =            2
     lattice parameter (alat)  =      10.2000  a.u.
     unit-cell volume          =     265.3020 (a.u.)^3
     number of atoms/cell      =            2
     number of atomic types    =            1
     number of electrons       =         8.00
     number of Kohn-Sham states=            4
     kinetic-energy cutoff     =      35.7500  Ry
     charge density cutoff     =     143.0000  Ry
     convergence threshold     =      1.0E-08
     mixing beta               =       0.7000
     number of iterations used =            8  plain     mixing
     Exchange-correlation      =  SLA  PZ   NOGX NOGC ( 1  1  0  0 0 0)

     celldm(1)=  10.200000  celldm(2)=   0.000000  celldm(3)=   0.000000
     celldm(4)=   0.000000  celldm(5)=   0.000000  celldm(6)=   0.000000

     crystal axes: (cart. coord. in units of alat)
               a(1) = (  -0.500000   0.000000   0.500000 )  
               a(2) = (   0.000000   0.500000   0.500000 )  
               a(3) = (  -0.500000   0.500000   0.000000 )  

     reciprocal axes: (cart. coord. in units 2 pi/alat)
               b(1) = ( -1.000000 -1.000000  1.000000 )  
               b(2) = (  1.000000  1.000000  1.000000 )  
               b(3) = ( -1.000000  1.000000 -1.000000 )  


     PseudoPot. # 1 for Si read from file:
     ../../../PP/Si.pz-vbc.UPF
     MD5 check sum: 6dfa03ddd5817404712e03e4d12deb78
     Pseudo is Norm-conserving, Zval =  4.0
     Generated by new atomic code, or converted to UPF format
     Using radial grid of  431 points,  2 beta functions with: 
                l(1) =   0
                l(2) =   1

     atomic species   valence    mass     pseudopotential
        Si             4.00    28.08600     Si( 1.00)

     24 Sym. Ops. (no inversion) found
          (note: 24 additional sym.ops. were found but ignored
           their fractional translations are incommensurate with FFT grid)


   Cartesian axes

     site n.     atom                  positions (alat units)
         1           Si  tau(   1) = (   0.0000000   0.0000000   0.0000000  )
         2           Si  tau(   2) = (  -0.2500000   0.2500000   0.2500000  )

     number of k points=    10
                       cart. coord. in units 2pi/alat
        k(    1) = (   0.0000000   0.0000000   0.0000000), wk =   0.0160000
        k(    2) = (  -0.2000000   0.2000000  -0.2000000), wk =   0.1280000
        k(    3) = (  -0.4000000   0.4000000  -0.4000000), wk =   0.1280000
        k(    4) = (   0.0000000   0.4000000   0.0000000), wk =   0.0960000
        k(    5) = (  -0.2000000   0.6000000  -0.2000000), wk =   0.3840000
        k(    6) = (   0.6000000  -0.2000000   0.6000000), wk =   0.3840000
        k(    7) = (   0.4000000   0.0000000   0.4000000), wk =   0.1920000
        k(    8) = (   0.0000000   0.8000000   0.0000000), wk =   0.0960000
        k(    9) = (   0.8000000   0.0000000   0.8000000), wk =   0.1920000
        k(   10) = (   0.6000000  -0.2000000   1.0000000), wk =   0.3840000

     Dense  grid:     7727 G-vectors     FFT dimensions: (  27,  27,  27)

     Estimated max dynamical RAM per process >       5.45Mb

     Initial potential from superposition of free atoms

     starting charge    7.99901, renormalised to    8.00000
     Starting wfc are    8 randomized atomic wfcs

     total cpu time spent up to now is        0.2 secs

     per-process dynamical memory:     7.6 Mb

     Self-consistent Calculation

     iteration #  1     ecut=    35.75 Ry     beta=0.70
     Davidson diagonalization with overlap
     ethr =  1.00E-02,  avg # of iterations =  2.0

     Threshold (ethr) on eigenvalues was too large:
     Diagonalizing with lowered threshold

     Davidson diagonalization with overlap
     ethr =  8.24E-04,  avg # of iterations =  1.0

     total cpu time spent up to now is        0.3 secs

     total energy              =     -15.84450045 Ry
     Harris-Foulkes estimate   =     -15.86650415 Ry
     estimated scf accuracy    <       0.06435641 Ry

     iteration #  2     ecut=    35.75 Ry     beta=0.70
     Davidson diagonalization with overlap
     ethr =  8.04E-04,  avg # of iterations =  1.0

     total cpu time spent up to now is        0.4 secs

     total energy              =     -15.84766452 Ry
     Harris-Foulkes estimate   =     -15.84798191 Ry
     estimated scf accuracy    <       0.00225258 Ry

     iteration #  3     ecut=    35.75 Ry     beta=0.70
     Davidson diagonalization with overlap
     ethr =  2.82E-05,  avg # of iterations =  2.1

     total cpu time spent up to now is        0.5 secs

     total energy              =     -15.84806556 Ry
     Harris-Foulkes estimate   =     -15.84809564 Ry
     estimated scf accuracy    <       0.00007338 Ry

     iteration #  4     ecut=    35.75 Ry     beta=0.70
     Davidson diagonalization with overlap
     ethr =  9.17E-07,  avg # of iterations =  2.2

     total cpu time spent up to now is        0.6 secs

     total energy              =     -15.84808464 Ry
     Harris-Foulkes estimate   =     -15.84808851 Ry
     estimated scf accuracy    <       0.00000818 Ry

     iteration #  5     ecut=    35.75 Ry     beta=0.70
     Davidson diagonalization with overlap
     ethr =  1.02E-07,  avg # of iterations =  2.1

     total cpu time spent up to now is        0.7 secs

     total energy              =     -15.84808599 Ry
     Harris-Foulkes estimate   =     -15.84808604 Ry
     estimated scf accuracy    <       0.00000013 Ry

     iteration #  6     ecut=    35.75 Ry     beta=0.70
     Davidson diagonalization with overlap
     ethr =  1.63E-09,  avg # of iterations =  2.5

     total cpu time spent up to now is        0.8 secs

     End of self-consistent calculation

          k = 0.0000 0.0000 0.0000 (   941 PWs)   bands (ev):

    -5.8083   6.2473   6.2473   6.2473

          k =-0.2000 0.2000-0.2000 (   947 PWs)   bands (ev):

    -5.2821   3.2205   5.6580   5.6580

          k =-0.4000 0.4000-0.4000 (   951 PWs)   bands (ev):

    -3.8867  -0.0969   5.1042   5.1042

          k = 0.0000 0.4000 0.0000 (   966 PWs)   bands (ev):

    -5.1015   3.6535   4.7281   4.7281

          k =-0.2000 0.6000-0.2000 (   956 PWs)   bands (ev):

    -3.9379   0.9188   3.5759   4.2124

          k = 0.6000-0.2000 0.6000 (   963 PWs)   bands (ev):

    -3.0238  -0.5158   2.7491   4.5030

          k = 0.4000 0.0000 0.4000 (   953 PWs)   bands (ev):

    -4.4349   1.7670   3.1725   5.3903

          k = 0.0000 0.8000 0.0000 (   962 PWs)   bands (ev):

    -3.0506   0.0702   3.4999   3.4999

          k = 0.8000 0.0000 0.8000 (   959 PWs)   bands (ev):

    -1.8106  -1.2139   2.0733   3.6217

          k = 0.6000-0.2000 1.0000 (   964 PWs)   bands (ev):

    -2.5944  -0.3173   2.1647   3.1776

     highest occupied level (ev):     6.2473

!    total energy              =     -15.84808602 Ry
     Harris-Foulkes estimate   =     -15.84808603 Ry
     estimated scf accuracy    <          1.8E-09 Ry

     The total energy is the sum of the following terms:

     one-electron contribution =       4.78430171 Ry
     hartree contribution      =       1.08843656 Ry
     xc contribution           =      -4.82106569 Ry
     ewald contribution        =     -16.89975861 Ry

     convergence has been achieved in   6 iterations

     Forces acting on atoms (Ry/au):

     atom    1 type  1   force =    -0.00000000    0.00000000   -0.00000000
     atom    2 type  1   force =     0.00000000    0.00000000    0.00000000

     Total force =     0.000000     Total SCF correction =     0.000000


     entering subroutine stress ...

          total   stress  (Ry/bohr**3)                   (kbar)     P=    3.12
   0.00002123  -0.00000000   0.00000000          3.12     -0.00      0.00
   0.00000000   0.00002123  -0.00000000          0.00      3.12     -0.00
   0.00000000  -0.00000000   0.00002123          0.00     -0.00      3.12


     Writing output data file silicon.save

     init_run     :      0.15s CPU      0.16s WALL (       1 calls)
     electrons    :      0.62s CPU      0.62s WALL (       1 calls)
     forces       :      0.01s CPU      0.01s WALL (       1 calls)
     stress       :      0.04s CPU      0.04s WALL (       1 calls)

     Called by init_run:
     wfcinit      :      0.08s CPU      0.09s WALL (       1 calls)
     potinit      :      0.00s CPU      0.01s WALL (       1 calls)

     Called by electrons:
     c_bands      :      0.50s CPU      0.50s WALL (       7 calls)
     sum_band     :      0.10s CPU      0.10s WALL (       7 calls)
     v_of_rho     :      0.00s CPU      0.01s WALL (       7 calls)
     mix_rho      :      0.00s CPU      0.00s WALL (       7 calls)

     Called by c_bands:
     init_us_2    :      0.04s CPU      0.02s WALL (     170 calls)
     cegterg      :      0.47s CPU      0.49s WALL (      70 calls)

     Called by sum_band:

     Called by *egterg:
     h_psi        :      0.49s CPU      0.52s WALL (     209 calls)
     g_psi        :      0.00s CPU      0.00s WALL (     129 calls)
     cdiaghg      :      0.00s CPU      0.01s WALL (     189 calls)

     Called by h_psi:
     h_psi:pot    :      0.49s CPU      0.52s WALL (     209 calls)
     h_psi:calbec :      0.01s CPU      0.01s WALL (     209 calls)
     vloc_psi     :      0.48s CPU      0.50s WALL (     209 calls)
     add_vuspsi   :      0.00s CPU      0.01s WALL (     209 calls)

     General routines
     calbec       :      0.01s CPU      0.01s WALL (     259 calls)
     fft          :      0.03s CPU      0.02s WALL (      34 calls)
     fftw         :      0.53s CPU      0.54s WALL (    1948 calls)
     davcio       :      0.00s CPU      0.00s WALL (      10 calls)

     Parallel routines
     fft_scatter  :      0.02s CPU      0.03s WALL (    1982 calls)

     PWSCF        :     0.87s CPU         0.88s WALL


   This run was terminated on:  12:52:16  22Jun2018            

=------------------------------------------------------------------------------=
   JOB DONE.
=------------------------------------------------------------------------------=
