
     Program BANDS v.6.0 (svn rev. 13079) starts on 16Apr2018 at 16:19:38 

     This program is part of the open-source Quantum ESPRESSO suite
     for quantum simulation of materials; please cite
         "P. Giannozzi et al., J. Phys.:Condens. Matter 21 395502 (2009);
          URL http://www.quantum-espresso.org", 
     in publications or presentations arising from this work. More details at
     http://www.quantum-espresso.org/quote

     Parallel version (MPI), running on     1 processors

     Reading data from directory:
     outdir/aluminium.save

   Info: using nr1, nr2, nr3 values from input

   Info: using nr1, nr2, nr3 values from input

     IMPORTANT: XC functional enforced from input :
     Exchange-correlation      =  SLA  PZ   NOGX NOGC ( 1  1  0  0 0 0)
     Any further DFT definition will be discarded
     Please, verify this is what you really want


     G-vector sticks info
     --------------------
     sticks:   dense  smooth     PW     G-vecs:    dense   smooth      PW
     Sum         121     121     55                  869      869     259

     high-symmetry point:  0.0000 0.0000 0.0000   x coordinate   0.0000
     high-symmetry point:  0.0000 0.0000 1.0000   x coordinate   1.0000
     high-symmetry point:  0.0000 0.0000 0.0000   x coordinate   1.0000
     high-symmetry point:  0.0000 1.0000 1.0000   x coordinate   2.4142
     high-symmetry point:  0.0000 0.0000 0.0000   x coordinate   2.4142
     high-symmetry point:  0.5000 0.5000 0.5000   x coordinate   3.2802

     Plottable bands (eV) written to file al.bands.gnu
     Bands written to file al.bands

 **************************************************************************

                    xk=(   0.00000,   0.00000,   0.00000  )

     point group O_h (m-3m) 
     there are 10 classes
     the character table:

       E     8C3   3C2   6C4   6C2'  i     8S6   3s_h  6S4   6s_d 
A_1g   1.00  1.00  1.00  1.00  1.00  1.00  1.00  1.00  1.00  1.00
A_2g   1.00  1.00  1.00 -1.00 -1.00  1.00  1.00  1.00 -1.00 -1.00
E_g    2.00 -1.00  2.00  0.00  0.00  2.00 -1.00  2.00  0.00  0.00
T_1g   3.00  0.00 -1.00  1.00 -1.00  3.00  0.00 -1.00  1.00 -1.00
T_2g   3.00  0.00 -1.00 -1.00  1.00  3.00  0.00 -1.00 -1.00  1.00
A_1u   1.00  1.00  1.00  1.00  1.00 -1.00 -1.00 -1.00 -1.00 -1.00
A_2u   1.00  1.00  1.00 -1.00 -1.00 -1.00 -1.00 -1.00  1.00  1.00
E_u    2.00 -1.00  2.00  0.00  0.00 -2.00  1.00 -2.00  0.00  0.00
T_1u   3.00  0.00 -1.00  1.00 -1.00 -3.00  0.00  1.00 -1.00  1.00
T_2u   3.00  0.00 -1.00 -1.00  1.00 -3.00  0.00  1.00  1.00 -1.00

     the symmetry operations in each class and the name of the first element:

     E        1
                                                                 
     8C3     17   19   20   18   24   21   22   23
                                                                 
     3C2      2    4    3
                                                                 
     6C4      7    8   15   16   12   11
                                                                 
     6C2'     5    6   14   13   10    9
                                                                 
     i       25
                                                                 
     8S6     41   43   44   42   48   45   46   47
                                                                 
     3s_h    26   28   27
                                                                 
     6S4     31   32   39   40   36   35
                                                                 
     6s_d    29   30   38   37   34   33
                                                                 

     Band symmetry, O_h (m-3m)  point group:

     e(  1 -  1) =     -3.19137  eV     1   --> A_1g G_1   G_1+
     e(  2 -  4) =     21.17739  eV     3   --> T_2g G_25' G_5+
     e(  5 -  7) =     22.55443  eV     3   --> T_1u G_15  G_4-
     e(  8 -  8) =     25.05863  eV     1   --> A_2u G_2'  G_2-

 **************************************************************************

 **************************************************************************

                    xk=(   0.00000,   0.00000,   0.10000  )

     point group C_4v (4mm) 
     there are  5 classes
     the character table:

       E     2C4   C2    2s_v  2s_d 
A_1    1.00  1.00  1.00  1.00  1.00
A_2    1.00  1.00  1.00 -1.00 -1.00
B_1    1.00 -1.00  1.00  1.00 -1.00
B_2    1.00 -1.00  1.00 -1.00  1.00
E      2.00  0.00 -2.00  0.00  0.00

     the symmetry operations in each class and the name of the first element:

     E        1
                                                                 
     2C4      3    4
                                                                 
     C2       2
                                                                 
     2s_v     5    6
                                                                 
     2s_d     7    8
                                                                 

     Band symmetry, C_4v (4mm)  point group:

     e(  1 -  1) =     -3.09630  eV     1   --> A_1  G_1 D_1   
     e(  2 -  3) =     20.23408  eV     2   --> E    G_5 D_5   
     e(  4 -  4) =     20.49695  eV     1   --> B_2  G_4 D_2'  
     e(  5 -  5) =     22.35338  eV     1   --> A_1  G_1 D_1   
     e(  6 -  7) =     23.64061  eV     2   --> E    G_5 D_5   
     e(  8 -  8) =     25.92794  eV     1   --> B_2  G_4 D_2'  

 **************************************************************************

 **************************************************************************

                    xk=(   0.00000,   0.00000,   0.20000  )

     Band symmetry, C_4v (4mm)  point group:

     e(  1 -  1) =     -2.81006  eV     1   --> A_1  G_1 D_1   
     e(  2 -  3) =     18.97265  eV     2   --> E    G_5 D_5   
     e(  4 -  4) =     19.23004  eV     1   --> B_2  G_4 D_2'  
     e(  5 -  5) =     21.82812  eV     1   --> A_1  G_1 D_1   
     e(  6 -  6) =     24.61642  eV     1   --> A_1  G_1 D_1   
     e(  7 -  8) =     25.32374  eV     2   --> E    G_5 D_5   

 **************************************************************************

 **************************************************************************

                    xk=(   0.00000,   0.00000,   0.30000  )

     Band symmetry, C_4v (4mm)  point group:

     e(  1 -  1) =     -2.33768  eV     1   --> A_1  G_1 D_1   
     e(  2 -  3) =     17.82135  eV     2   --> E    G_5 D_5   
     e(  4 -  4) =     17.94881  eV     1   --> B_2  G_4 D_2'  
     e(  5 -  5) =     21.12173  eV     1   --> A_1  G_1 D_1   
     e(  6 -  6) =     21.90342  eV     1   --> A_1  G_1 D_1   
     e(  7 -  8) =     27.13699  eV     2   --> E    G_5 D_5   

 **************************************************************************

 **************************************************************************

                    xk=(   0.00000,   0.00000,   0.40000  )

     Band symmetry, C_4v (4mm)  point group:

     e(  1 -  1) =     -1.67470  eV     1   --> A_1  G_1 D_1   
     e(  2 -  2) =     16.78704  eV     1   --> B_2  G_4 D_2'  
     e(  3 -  4) =     16.82860  eV     2   --> E    G_5 D_5   
     e(  5 -  5) =     19.24115  eV     1   --> A_1  G_1 D_1   
     e(  6 -  6) =     20.36138  eV     1   --> A_1  G_1 D_1   
     e(  7 -  8) =     28.98491  eV     2   --> E    G_5 D_5   

 **************************************************************************

 **************************************************************************

                    xk=(   0.00000,   0.00000,   0.50000  )

     Band symmetry, C_4v (4mm)  point group:

     e(  1 -  1) =     -0.83614  eV     1   --> A_1  G_1 D_1   
     e(  2 -  2) =     15.78619  eV     1   --> B_2  G_4 D_2'  
     e(  3 -  4) =     15.97781  eV     2   --> E    G_5 D_5   
     e(  5 -  5) =     16.69405  eV     1   --> A_1  G_1 D_1   
     e(  6 -  6) =     19.62996  eV     1   --> A_1  G_1 D_1   
     e(  7 -  7) =     30.68574  eV     1   --> B_1  G_3 D_2   
     e(  8 -  8) =     30.76580  eV     1   -->   ?

 **************************************************************************

 **************************************************************************

                    xk=(   0.00000,   0.00000,   0.60000  )

     Band symmetry, C_4v (4mm)  point group:

     e(  1 -  1) =      0.17902  eV     1   --> A_1  G_1 D_1   
     e(  2 -  2) =     14.27873  eV     1   --> A_1  G_1 D_1   
     e(  3 -  3) =     14.95906  eV     1   --> B_2  G_4 D_2'  
     e(  4 -  5) =     15.28345  eV     2   --> E    G_5 D_5   
     e(  6 -  6) =     18.96374  eV     1   --> A_1  G_1 D_1   
     e(  7 -  7) =     31.61838  eV     1   --> B_1  G_3 D_2   
     e(  8 -  8) =     32.39997  eV     1   -->   ?

 **************************************************************************

 **************************************************************************

                    xk=(   0.00000,   0.00000,   0.70000  )

     Band symmetry, C_4v (4mm)  point group:

     e(  1 -  1) =      1.36485  eV     1   --> A_1  G_1 D_1   
     e(  2 -  2) =     12.00704  eV     1   --> A_1  G_1 D_1   
     e(  3 -  3) =     14.31217  eV     1   --> B_2  G_4 D_2'  
     e(  4 -  5) =     14.74521  eV     2   --> E    G_5 D_5   
     e(  6 -  6) =     18.42550  eV     1   --> A_1  G_1 D_1   
     e(  7 -  7) =     32.67207  eV     1   --> B_1  G_3 D_2   
     e(  8 -  8) =     33.87973  eV     1   -->   ?

 **************************************************************************

 **************************************************************************

                    xk=(   0.00000,   0.00000,   0.80000  )

     Band symmetry, C_4v (4mm)  point group:

     e(  1 -  1) =      2.70911  eV     1   --> A_1  G_1 D_1   
     e(  2 -  2) =      9.88761  eV     1   --> A_1  G_1 D_1   
     e(  3 -  3) =     13.84863  eV     1   --> B_2  G_4 D_2'  
     e(  4 -  5) =     14.36203  eV     2   --> E    G_5 D_5   
     e(  6 -  6) =     18.02515  eV     1   --> A_1  G_1 D_1   
     e(  7 -  7) =     33.77686  eV     1   --> B_1  G_3 D_2   
     e(  8 -  8) =     35.22452  eV     1   -->   ?

 **************************************************************************

 **************************************************************************

                    xk=(   0.00000,   0.00000,   0.90000  )

     Band symmetry, C_4v (4mm)  point group:

     e(  1 -  1) =      4.18161  eV     1   --> A_1  G_1 D_1   
     e(  2 -  2) =      7.94739  eV     1   --> A_1  G_1 D_1   
     e(  3 -  3) =     13.56700  eV     1   --> B_2  G_4 D_2'  
     e(  4 -  5) =     14.13151  eV     2   --> E    G_5 D_5   
     e(  6 -  6) =     17.77822  eV     1   --> A_1  G_1 D_1   
     e(  7 -  7) =     34.73690  eV     1   --> B_1  G_3 D_2   
     e(  8 -  8) =     36.34893  eV     1   -->   ?

 **************************************************************************

 **************************************************************************

                    xk=(   0.00000,   0.00000,   1.00000  )

     point group D_4h(4/mmm)
     there are 10 classes
     the character table:

       E     2C4   C2    2C2'  2C2'' i     2S4   s_h   2s_v  2s_d 
A_1g   1.00  1.00  1.00  1.00  1.00  1.00  1.00  1.00  1.00  1.00
A_2g   1.00  1.00  1.00 -1.00 -1.00  1.00  1.00  1.00 -1.00 -1.00
B_1g   1.00 -1.00  1.00  1.00 -1.00  1.00 -1.00  1.00  1.00 -1.00
B_2g   1.00 -1.00  1.00 -1.00  1.00  1.00 -1.00  1.00 -1.00  1.00
E_g    2.00  0.00 -2.00  0.00  0.00  2.00  0.00 -2.00  0.00  0.00
A_1u   1.00  1.00  1.00  1.00  1.00 -1.00 -1.00 -1.00 -1.00 -1.00
A_2u   1.00  1.00  1.00 -1.00 -1.00 -1.00 -1.00 -1.00  1.00  1.00
B_1u   1.00 -1.00  1.00  1.00 -1.00 -1.00  1.00 -1.00 -1.00  1.00
B_2u   1.00 -1.00  1.00 -1.00  1.00 -1.00  1.00 -1.00  1.00 -1.00
E_u    2.00  0.00 -2.00  0.00  0.00 -2.00  0.00  2.00  0.00  0.00

     the symmetry operations in each class and the name of the first element:

     E        1
                                                                 
     2C4      7    8
                                                                 
     C2       2
                                                                 
     2C2'     3    4
                                                                 
     2C2''    5    6
                                                                 
     i        9
                                                                 
     2S4     15   16
                                                                 
     s_h     10
                                                                 
     2s_v    11   12
                                                                 
     2s_d    13   14
                                                                 

     Band symmetry, D_4h(4/mmm) point group:

     e(  1 -  1) =      5.33056  eV     1   --> A_2u X_4' M_4' 
     e(  2 -  2) =      6.64380  eV     1   --> A_1g X_1  M_1  
     e(  3 -  3) =     13.47395  eV     1   --> B_2g X_3  M_3  
     e(  4 -  5) =     14.05494  eV     2   --> E_u  X_5' M_5' 
     e(  6 -  6) =     17.69513  eV     1   --> A_1g X_1  M_1  
     e(  7 -  7) =     35.16942  eV     1   --> B_1g X_2  M_2  
     e(  8 -  8) =     36.86995  eV     1   -->   ?

 **************************************************************************

 **************************************************************************

                    xk=(   0.00000,   0.00000,   0.00000  )

     point group O_h (m-3m) 
     there are 10 classes
     the character table:

       E     8C3   3C2   6C4   6C2'  i     8S6   3s_h  6S4   6s_d 
A_1g   1.00  1.00  1.00  1.00  1.00  1.00  1.00  1.00  1.00  1.00
A_2g   1.00  1.00  1.00 -1.00 -1.00  1.00  1.00  1.00 -1.00 -1.00
E_g    2.00 -1.00  2.00  0.00  0.00  2.00 -1.00  2.00  0.00  0.00
T_1g   3.00  0.00 -1.00  1.00 -1.00  3.00  0.00 -1.00  1.00 -1.00
T_2g   3.00  0.00 -1.00 -1.00  1.00  3.00  0.00 -1.00 -1.00  1.00
A_1u   1.00  1.00  1.00  1.00  1.00 -1.00 -1.00 -1.00 -1.00 -1.00
A_2u   1.00  1.00  1.00 -1.00 -1.00 -1.00 -1.00 -1.00  1.00  1.00
E_u    2.00 -1.00  2.00  0.00  0.00 -2.00  1.00 -2.00  0.00  0.00
T_1u   3.00  0.00 -1.00  1.00 -1.00 -3.00  0.00  1.00 -1.00  1.00
T_2u   3.00  0.00 -1.00 -1.00  1.00 -3.00  0.00  1.00  1.00 -1.00

     the symmetry operations in each class and the name of the first element:

     E        1
                                                                 
     8C3     17   19   20   18   24   21   22   23
                                                                 
     3C2      2    4    3
                                                                 
     6C4      7    8   15   16   12   11
                                                                 
     6C2'     5    6   14   13   10    9
                                                                 
     i       25
                                                                 
     8S6     41   43   44   42   48   45   46   47
                                                                 
     3s_h    26   28   27
                                                                 
     6S4     31   32   39   40   36   35
                                                                 
     6s_d    29   30   38   37   34   33
                                                                 

     Band symmetry, O_h (m-3m)  point group:

     e(  1 -  1) =     -3.19137  eV     1   --> A_1g G_1   G_1+
     e(  2 -  4) =     21.17739  eV     3   --> T_2g G_25' G_5+
     e(  5 -  7) =     22.55443  eV     3   --> T_1u G_15  G_4-
     e(  8 -  8) =     25.05863  eV     1   --> A_2u G_2'  G_2-

 **************************************************************************

 **************************************************************************

                    xk=(   0.00000,   0.10000,   0.10000  )

     point group C_2v (mm2) 
     there are  4 classes
     the character table:

       E     C2    s_v   s_v' 
A_1    1.00  1.00  1.00  1.00
A_2    1.00  1.00 -1.00 -1.00
B_1    1.00 -1.00  1.00 -1.00
B_2    1.00 -1.00 -1.00  1.00

     the symmetry operations in each class and the name of the first element:

     E        1
                                                                 
     C2       2
                                                                 
     s_v      3
                                                                 
     s_v'     4
                                                                 

     Band symmetry, C_2v (mm2)  point group:

     e(  1 -  1) =     -3.00133  eV     1   --> A_1  D_1  S_1  
     e(  2 -  2) =     18.91317  eV     1   --> B_2  D_4  S_4  
     e(  3 -  3) =     19.53882  eV     1   --> A_1  D_1  S_1  
     e(  4 -  4) =     21.36218  eV     1   --> A_2  D_2  S_2  
     e(  5 -  5) =     22.66494  eV     1   --> B_1  D_3  S_3  
     e(  6 -  6) =     23.47121  eV     1   --> B_2  D_4  S_4  
     e(  7 -  7) =     23.95347  eV     1   --> A_1  D_1  S_1  
     e(  8 -  8) =     26.87897  eV     1   -->   ?

 **************************************************************************

 **************************************************************************

                    xk=(   0.00000,   0.20000,   0.20000  )

     Band symmetry, C_2v (mm2)  point group:

     e(  1 -  1) =     -2.43021  eV     1   --> A_1  D_1  S_1  
     e(  2 -  2) =     16.11381  eV     1   --> B_2  D_4  S_4  
     e(  3 -  3) =     17.29901  eV     1   --> A_1  D_1  S_1  
     e(  4 -  4) =     21.91876  eV     1   --> A_2  D_2  S_2  
     e(  5 -  5) =     22.86104  eV     1   --> B_1  D_3  S_3  
     e(  6 -  6) =     24.09451  eV     1   --> B_2  D_4  S_4  
     e(  7 -  7) =     24.57940  eV     1   --> B_1  D_3  S_3  
     e(  8 -  8) =     25.40702  eV     1   --> A_1  D_1  S_1  

 **************************************************************************

 **************************************************************************

                    xk=(   0.00000,   0.30000,   0.30000  )

     Band symmetry, C_2v (mm2)  point group:

     e(  1 -  1) =     -1.48727  eV     1   --> A_1  D_1  S_1  
     e(  2 -  2) =     13.58579  eV     1   --> B_2  D_4  S_4  
     e(  3 -  3) =     15.07660  eV     1   --> A_1  D_1  S_1  
     e(  4 -  4) =     21.64537  eV     1   --> B_1  D_3  S_3  
     e(  5 -  5) =     22.84386  eV     1   --> A_2  D_2  S_2  
     e(  6 -  6) =     23.74784  eV     1   --> A_1  D_1  S_1  
     e(  7 -  7) =     24.11795  eV     1   --> B_1  D_3  S_3  
     e(  8 -  8) =     24.89365  eV     1   --> B_2  D_4  S_4  

 **************************************************************************

 **************************************************************************

                    xk=(   0.00000,   0.40000,   0.40000  )

     Band symmetry, C_2v (mm2)  point group:

     e(  1 -  1) =     -0.18851  eV     1   --> A_1  D_1  S_1  
     e(  2 -  2) =     11.37965  eV     1   --> B_2  D_4  S_4  
     e(  3 -  3) =     13.00854  eV     1   --> A_1  D_1  S_1  
     e(  4 -  4) =     19.67757  eV     1   --> B_1  D_3  S_3  
     e(  5 -  5) =     21.76996  eV     1   --> A_1  D_1  S_1  
     e(  6 -  6) =     24.12762  eV     1   --> A_2  D_2  S_2  
     e(  7 -  7) =     24.99346  eV     1   --> B_1  D_3  S_3  
     e(  8 -  8) =     25.97257  eV     1   --> B_2  D_4  S_4  

 **************************************************************************

 **************************************************************************

                    xk=(   0.00000,   0.50000,   0.50000  )

     Band symmetry, C_2v (mm2)  point group:

     e(  1 -  1) =      1.45908  eV     1   --> A_1  D_1  S_1  
     e(  2 -  2) =      9.52127  eV     1   --> B_2  D_4  S_4  
     e(  3 -  3) =     11.16988  eV     1   --> A_1  D_1  S_1  
     e(  4 -  4) =     17.95703  eV     1   --> B_1  D_3  S_3  
     e(  5 -  5) =     19.98868  eV     1   --> A_1  D_1  S_1  
     e(  6 -  6) =     25.78016  eV     1   --> A_2  D_2  S_2  
     e(  7 -  7) =     26.25211  eV     1   --> B_1  D_3  S_3  
     e(  8 -  8) =     27.35892  eV     1   --> B_2  D_4  S_4  

 **************************************************************************

 **************************************************************************

                    xk=(   0.00000,   0.60000,   0.60000  )

     Band symmetry, C_2v (mm2)  point group:

     e(  1 -  1) =      3.43306  eV     1   --> A_1  D_1  S_1  
     e(  2 -  2) =      8.00491  eV     1   --> B_2  D_4  S_4  
     e(  3 -  3) =      9.60364  eV     1   --> A_1  D_1  S_1  
     e(  4 -  4) =     16.54690  eV     1   --> B_1  D_3  S_3  
     e(  5 -  5) =     18.44952  eV     1   --> A_1  D_1  S_1  
     e(  6 -  6) =     27.76505  eV     1   --> A_2  D_2  S_2  
     e(  7 -  7) =     27.81659  eV     1   --> B_1  D_3  S_3  
     e(  8 -  8) =     29.03814  eV     1   --> B_2  D_4  S_4  

 **************************************************************************

 **************************************************************************

                    xk=(   0.00000,   0.70000,   0.70000  )

     Band symmetry, C_2v (mm2)  point group:

     e(  1 -  1) =      5.69600  eV     1   --> A_1  D_1  S_1  
     e(  2 -  2) =      6.83108  eV     1   --> B_2  D_4  S_4  
     e(  3 -  3) =      8.37548  eV     1   --> A_1  D_1  S_1  
     e(  4 -  4) =     15.45267  eV     1   --> B_1  D_3  S_3  
     e(  5 -  5) =     17.19585  eV     1   --> A_1  D_1  S_1  
     e(  6 -  6) =     26.15079  eV     1   --> A_1  D_1  S_1  
     e(  7 -  7) =     29.69130  eV     1   --> B_1  D_3  S_3  
     e(  8 -  8) =     30.07041  eV     1   --> A_2  D_2  S_2  

 **************************************************************************

 **************************************************************************

                    xk=(   0.00000,   0.80000,   0.80000  )

     Band symmetry, C_2v (mm2)  point group:

     e(  1 -  1) =      5.99606  eV     1   --> B_2  D_4  S_4  
     e(  2 -  2) =      7.29582  eV     1   --> A_1  D_1  S_1  
     e(  3 -  3) =      8.42306  eV     1   --> A_1  D_1  S_1  
     e(  4 -  4) =     14.67560  eV     1   --> B_1  D_3  S_3  
     e(  5 -  5) =     16.21958  eV     1   --> A_1  D_1  S_1  
     e(  6 -  6) =     22.45802  eV     1   --> A_1  D_1  S_1  
     e(  7 -  7) =     31.81604  eV     1   --> B_1  D_3  S_3  
     e(  8 -  8) =     32.63785  eV     1   --> A_2  D_2  S_2  

 **************************************************************************

 **************************************************************************

                    xk=(   0.00000,   0.90000,   0.90000  )

     Band symmetry, C_2v (mm2)  point group:

     e(  1 -  1) =      5.49664  eV     1   --> B_2  D_4  S_4  
     e(  2 -  2) =      6.82778  eV     1   --> A_1  D_1  S_1  
     e(  3 -  3) =     11.09342  eV     1   --> A_1  D_1  S_1  
     e(  4 -  4) =     14.21179  eV     1   --> B_1  D_3  S_3  
     e(  5 -  5) =     15.37698  eV     1   --> A_1  D_1  S_1  
     e(  6 -  6) =     19.21523  eV     1   --> A_1  D_1  S_1  
     e(  7 -  7) =     33.98183  eV     1   --> B_1  D_3  S_3  
     e(  8 -  8) =     35.27407  eV     1   --> A_2  D_2  S_2  

 **************************************************************************

 **************************************************************************

                    xk=(   0.00000,   1.00000,   1.00000  )

     point group D_4h(4/mmm)
     there are 10 classes
     the character table:

       E     2C4   C2    2C2'  2C2'' i     2S4   s_h   2s_v  2s_d 
A_1g   1.00  1.00  1.00  1.00  1.00  1.00  1.00  1.00  1.00  1.00
A_2g   1.00  1.00  1.00 -1.00 -1.00  1.00  1.00  1.00 -1.00 -1.00
B_1g   1.00 -1.00  1.00  1.00 -1.00  1.00 -1.00  1.00  1.00 -1.00
B_2g   1.00 -1.00  1.00 -1.00  1.00  1.00 -1.00  1.00 -1.00  1.00
E_g    2.00  0.00 -2.00  0.00  0.00  2.00  0.00 -2.00  0.00  0.00
A_1u   1.00  1.00  1.00  1.00  1.00 -1.00 -1.00 -1.00 -1.00 -1.00
A_2u   1.00  1.00  1.00 -1.00 -1.00 -1.00 -1.00 -1.00  1.00  1.00
B_1u   1.00 -1.00  1.00  1.00 -1.00 -1.00  1.00 -1.00 -1.00  1.00
B_2u   1.00 -1.00  1.00 -1.00  1.00 -1.00  1.00 -1.00  1.00 -1.00
E_u    2.00  0.00 -2.00  0.00  0.00 -2.00  0.00  2.00  0.00  0.00

     the symmetry operations in each class and the name of the first element:

     E        1
                                                                 
     2C4      7    8
                                                                 
     C2       4
                                                                 
     2C2'     2    3
                                                                 
     2C2''    5    6
                                                                 
     i        9
                                                                 
     2S4     15   16
                                                                 
     s_h     12
                                                                 
     2s_v    10   11
                                                                 
     2s_d    13   14
                                                                 

     Band symmetry, D_4h(4/mmm) point group:

     e(  1 -  1) =      5.33056  eV     1   --> A_2u X_4' M_4' 
     e(  2 -  2) =      6.64380  eV     1   --> A_1g X_1  M_1  
     e(  3 -  3) =     13.47395  eV     1   --> B_2g X_3  M_3  
     e(  4 -  5) =     14.05494  eV     2   --> E_u  X_5' M_5' 
     e(  6 -  6) =     17.69513  eV     1   --> A_1g X_1  M_1  
     e(  7 -  7) =     35.16942  eV     1   --> B_1g X_2  M_2  
     e(  8 -  8) =     36.86995  eV     1   -->   ?

 **************************************************************************

 **************************************************************************

                    xk=(   0.00000,   0.00000,   0.00000  )

     point group O_h (m-3m) 
     there are 10 classes
     the character table:

       E     8C3   3C2   6C4   6C2'  i     8S6   3s_h  6S4   6s_d 
A_1g   1.00  1.00  1.00  1.00  1.00  1.00  1.00  1.00  1.00  1.00
A_2g   1.00  1.00  1.00 -1.00 -1.00  1.00  1.00  1.00 -1.00 -1.00
E_g    2.00 -1.00  2.00  0.00  0.00  2.00 -1.00  2.00  0.00  0.00
T_1g   3.00  0.00 -1.00  1.00 -1.00  3.00  0.00 -1.00  1.00 -1.00
T_2g   3.00  0.00 -1.00 -1.00  1.00  3.00  0.00 -1.00 -1.00  1.00
A_1u   1.00  1.00  1.00  1.00  1.00 -1.00 -1.00 -1.00 -1.00 -1.00
A_2u   1.00  1.00  1.00 -1.00 -1.00 -1.00 -1.00 -1.00  1.00  1.00
E_u    2.00 -1.00  2.00  0.00  0.00 -2.00  1.00 -2.00  0.00  0.00
T_1u   3.00  0.00 -1.00  1.00 -1.00 -3.00  0.00  1.00 -1.00  1.00
T_2u   3.00  0.00 -1.00 -1.00  1.00 -3.00  0.00  1.00  1.00 -1.00

     the symmetry operations in each class and the name of the first element:

     E        1
                                                                 
     8C3     17   19   20   18   24   21   22   23
                                                                 
     3C2      2    4    3
                                                                 
     6C4      7    8   15   16   12   11
                                                                 
     6C2'     5    6   14   13   10    9
                                                                 
     i       25
                                                                 
     8S6     41   43   44   42   48   45   46   47
                                                                 
     3s_h    26   28   27
                                                                 
     6S4     31   32   39   40   36   35
                                                                 
     6s_d    29   30   38   37   34   33
                                                                 

     Band symmetry, O_h (m-3m)  point group:

     e(  1 -  1) =     -3.19137  eV     1   --> A_1g G_1   G_1+
     e(  2 -  4) =     21.17739  eV     3   --> T_2g G_25' G_5+
     e(  5 -  7) =     22.55443  eV     3   --> T_1u G_15  G_4-
     e(  8 -  8) =     25.05863  eV     1   --> A_2u G_2'  G_2-

 **************************************************************************

 **************************************************************************

                    xk=(   0.10000,   0.10000,   0.10000  )

     point group C_3v (3m)  
     there are  3 classes
     the character table:

       E     2C3   3s_v 
A_1    1.00  1.00  1.00
A_2    1.00  1.00 -1.00
E      2.00 -1.00  0.00

     the symmetry operations in each class and the name of the first element:

     E        1
                                                                 
     2C3      2    3
                                                                 
     3s_v     4    5    6
                                                                 

     Band symmetry, C_3v (3m)   point group:

     e(  1 -  1) =     -2.90646  eV     1   --> A_1  L_1       
     e(  2 -  2) =     17.77044  eV     1   --> A_1  L_1       
     e(  3 -  4) =     20.40271  eV     2   --> E    L_3       
     e(  5 -  5) =     23.29965  eV     1   --> A_1  L_1       
     e(  6 -  7) =     23.74726  eV     2   --> E    L_3       
     e(  8 -  8) =     27.00215  eV     1   -->   ?

 **************************************************************************

 **************************************************************************

                    xk=(   0.20000,   0.20000,   0.20000  )

     Band symmetry, C_3v (3m)   point group:

     e(  1 -  1) =     -2.05354  eV     1   --> A_1  L_1       
     e(  2 -  2) =     13.71328  eV     1   --> A_1  L_1       
     e(  3 -  4) =     19.62744  eV     2   --> E    L_3       
     e(  5 -  5) =     23.06110  eV     1   --> A_1  L_1       
     e(  6 -  7) =     24.23575  eV     2   --> E    L_3       
     e(  8 -  8) =     26.47513  eV     1   -->   ?

 **************************************************************************

 **************************************************************************

                    xk=(   0.30000,   0.30000,   0.30000  )

     Band symmetry, C_3v (3m)   point group:

     e(  1 -  1) =     -0.65058  eV     1   --> A_1  L_1       
     e(  2 -  2) =      9.96281  eV     1   --> A_1  L_1       
     e(  3 -  4) =     19.27463  eV     2   --> E    L_3       
     e(  5 -  6) =     22.45855  eV     2   --> E    L_3       
     e(  7 -  7) =     22.92660  eV     1   --> A_1  L_1       
     e(  8 -  8) =     26.51188  eV     1   --> A_1  L_1       

 **************************************************************************

 **************************************************************************

                    xk=(   0.40000,   0.40000,   0.40000  )

     Band symmetry, C_3v (3m)   point group:

     e(  1 -  1) =      1.27528  eV     1   --> A_1  L_1       
     e(  2 -  2) =      6.61389  eV     1   --> A_1  L_1       
     e(  3 -  4) =     19.37125  eV     2   --> E    L_3       
     e(  5 -  6) =     20.96494  eV     2   --> E    L_3       
     e(  7 -  7) =     23.15431  eV     1   --> A_1  L_1       
     e(  8 -  8) =     24.99346  eV     1   --> A_1  L_1       

 **************************************************************************

 **************************************************************************

                    xk=(   0.50000,   0.50000,   0.50000  )

     point group D_3d (-3m) 
     there are  6 classes
     the character table:

       E     2C3   3C2'  i     2S6   3s_d 
A_1g   1.00  1.00  1.00  1.00  1.00  1.00
A_2g   1.00  1.00 -1.00  1.00  1.00 -1.00
E_g    2.00 -1.00  0.00  2.00 -1.00  0.00
A_1u   1.00  1.00  1.00 -1.00 -1.00 -1.00
A_2u   1.00  1.00 -1.00 -1.00 -1.00  1.00
E_u    2.00 -1.00  0.00 -2.00  1.00  0.00

     the symmetry operations in each class and the name of the first element:

     E        1
                                                                 
     2C3      5    6
                                                                 
     3C2'     2    4    3
                                                                 
     i        7
                                                                 
     2S6     11   12
                                                                 
     3s_d     8   10    9
                                                                 

     Band symmetry, D_3d (-3m)  point group:

     e(  1 -  1) =      3.59549  eV     1   --> A_2u L_2'      
     e(  2 -  2) =      3.81838  eV     1   --> A_1g L_1       
     e(  3 -  4) =     19.89749  eV     2   --> E_u  L_3'      
     e(  5 -  6) =     19.96699  eV     2   --> E_g  L_3       
     e(  7 -  7) =     23.71513  eV     1   --> A_2u L_2'      
     e(  8 -  8) =     23.98081  eV     1   --> A_1g L_1       

 **************************************************************************

     BANDS        :     0.52s CPU         0.52s WALL


   This run was terminated on:  16:19:39  16Apr2018            

=------------------------------------------------------------------------------=
   JOB DONE.
=------------------------------------------------------------------------------=
