
     Program PWSCF v.6.0 (svn rev. 13079) starts on 22Jun2018 at 12:52: 8 

     This program is part of the open-source Quantum ESPRESSO suite
     for quantum simulation of materials; please cite
         "P. Giannozzi et al., J. Phys.:Condens. Matter 21 395502 (2009);
          URL http://www.quantum-espresso.org", 
     in publications or presentations arising from this work. More details at
     http://www.quantum-espresso.org/quote

     Parallel version (MPI), running on     1 processors
     Waiting for input...
     Reading input from standard input

     Current dimensions of program PWSCF are:
     Max number of different atomic species (ntypx) = 10
     Max number of k-points (npk) =  40000
     Max angular momentum in pseudopotentials (lmaxx) =  3

     Subspace diagonalization in iterative solution of the eigenvalue problem:
     a serial algorithm will be used


     G-vector sticks info
     --------------------
     sticks:   dense  smooth     PW     G-vecs:    dense   smooth      PW
     Sum         313     313    109                 3695     3695     725



     bravais-lattice index     =            2
     lattice parameter (alat)  =      10.2000  a.u.
     unit-cell volume          =     265.3020 (a.u.)^3
     number of atoms/cell      =            2
     number of atomic types    =            1
     number of electrons       =         8.00
     number of Kohn-Sham states=            4
     kinetic-energy cutoff     =      21.8750  Ry
     charge density cutoff     =      87.5000  Ry
     convergence threshold     =      1.0E-08
     mixing beta               =       0.7000
     number of iterations used =            8  plain     mixing
     Exchange-correlation      =  SLA  PZ   NOGX NOGC ( 1  1  0  0 0 0)

     celldm(1)=  10.200000  celldm(2)=   0.000000  celldm(3)=   0.000000
     celldm(4)=   0.000000  celldm(5)=   0.000000  celldm(6)=   0.000000

     crystal axes: (cart. coord. in units of alat)
               a(1) = (  -0.500000   0.000000   0.500000 )  
               a(2) = (   0.000000   0.500000   0.500000 )  
               a(3) = (  -0.500000   0.500000   0.000000 )  

     reciprocal axes: (cart. coord. in units 2 pi/alat)
               b(1) = ( -1.000000 -1.000000  1.000000 )  
               b(2) = (  1.000000  1.000000  1.000000 )  
               b(3) = ( -1.000000  1.000000 -1.000000 )  


     PseudoPot. # 1 for Si read from file:
     ../../../PP/Si.pz-vbc.UPF
     MD5 check sum: 6dfa03ddd5817404712e03e4d12deb78
     Pseudo is Norm-conserving, Zval =  4.0
     Generated by new atomic code, or converted to UPF format
     Using radial grid of  431 points,  2 beta functions with: 
                l(1) =   0
                l(2) =   1

     atomic species   valence    mass     pseudopotential
        Si             4.00    28.08600     Si( 1.00)

     48 Sym. Ops., with inversion, found (24 have fractional translation)



   Cartesian axes

     site n.     atom                  positions (alat units)
         1           Si  tau(   1) = (   0.0000000   0.0000000   0.0000000  )
         2           Si  tau(   2) = (  -0.2500000   0.2500000   0.2500000  )

     number of k points=    10
                       cart. coord. in units 2pi/alat
        k(    1) = (   0.0000000   0.0000000   0.0000000), wk =   0.0160000
        k(    2) = (  -0.2000000   0.2000000  -0.2000000), wk =   0.1280000
        k(    3) = (  -0.4000000   0.4000000  -0.4000000), wk =   0.1280000
        k(    4) = (   0.0000000   0.4000000   0.0000000), wk =   0.0960000
        k(    5) = (  -0.2000000   0.6000000  -0.2000000), wk =   0.3840000
        k(    6) = (   0.6000000  -0.2000000   0.6000000), wk =   0.3840000
        k(    7) = (   0.4000000   0.0000000   0.4000000), wk =   0.1920000
        k(    8) = (   0.0000000   0.8000000   0.0000000), wk =   0.0960000
        k(    9) = (   0.8000000   0.0000000   0.8000000), wk =   0.1920000
        k(   10) = (   0.6000000  -0.2000000   1.0000000), wk =   0.3840000

     Dense  grid:     3695 G-vectors     FFT dimensions: (  24,  24,  24)

     Estimated max dynamical RAM per process >       2.91Mb

     Initial potential from superposition of free atoms

     starting charge    7.99901, renormalised to    8.00000
     Starting wfc are    8 randomized atomic wfcs

     total cpu time spent up to now is        0.1 secs

     per-process dynamical memory:     6.4 Mb

     Self-consistent Calculation

     iteration #  1     ecut=    21.88 Ry     beta=0.70
     Davidson diagonalization with overlap
     ethr =  1.00E-02,  avg # of iterations =  2.0

     Threshold (ethr) on eigenvalues was too large:
     Diagonalizing with lowered threshold

     Davidson diagonalization with overlap
     ethr =  8.14E-04,  avg # of iterations =  1.0

     total cpu time spent up to now is        0.2 secs

     total energy              =     -15.84116187 Ry
     Harris-Foulkes estimate   =     -15.86310553 Ry
     estimated scf accuracy    <       0.06406778 Ry

     iteration #  2     ecut=    21.88 Ry     beta=0.70
     Davidson diagonalization with overlap
     ethr =  8.01E-04,  avg # of iterations =  1.0

     total cpu time spent up to now is        0.2 secs

     total energy              =     -15.84430864 Ry
     Harris-Foulkes estimate   =     -15.84463102 Ry
     estimated scf accuracy    <       0.00225458 Ry

     iteration #  3     ecut=    21.88 Ry     beta=0.70
     Davidson diagonalization with overlap
     ethr =  2.82E-05,  avg # of iterations =  2.0

     total cpu time spent up to now is        0.3 secs

     total energy              =     -15.84469626 Ry
     Harris-Foulkes estimate   =     -15.84472616 Ry
     estimated scf accuracy    <       0.00007109 Ry

     iteration #  4     ecut=    21.88 Ry     beta=0.70
     Davidson diagonalization with overlap
     ethr =  8.89E-07,  avg # of iterations =  2.1

     total cpu time spent up to now is        0.3 secs

     total energy              =     -15.84471233 Ry
     Harris-Foulkes estimate   =     -15.84471563 Ry
     estimated scf accuracy    <       0.00000694 Ry

     iteration #  5     ecut=    21.88 Ry     beta=0.70
     Davidson diagonalization with overlap
     ethr =  8.68E-08,  avg # of iterations =  2.1

     total cpu time spent up to now is        0.4 secs

     total energy              =     -15.84471343 Ry
     Harris-Foulkes estimate   =     -15.84471348 Ry
     estimated scf accuracy    <       0.00000010 Ry

     iteration #  6     ecut=    21.88 Ry     beta=0.70
     Davidson diagonalization with overlap
     ethr =  1.23E-09,  avg # of iterations =  2.6

     total cpu time spent up to now is        0.4 secs

     End of self-consistent calculation

          k = 0.0000 0.0000 0.0000 (   459 PWs)   bands (ev):

    -5.8071   6.2580   6.2580   6.2580

          k =-0.2000 0.2000-0.2000 (   465 PWs)   bands (ev):

    -5.2804   3.2267   5.6668   5.6668

          k =-0.4000 0.4000-0.4000 (   467 PWs)   bands (ev):

    -3.8854  -0.0939   5.1100   5.1100

          k = 0.0000 0.4000 0.0000 (   463 PWs)   bands (ev):

    -5.0997   3.6602   4.7357   4.7357

          k =-0.2000 0.6000-0.2000 (   452 PWs)   bands (ev):

    -3.9358   0.9232   3.5813   4.2183

          k = 0.6000-0.2000 0.6000 (   453 PWs)   bands (ev):

    -3.0214  -0.5128   2.7536   4.5089

          k = 0.4000 0.0000 0.4000 (   453 PWs)   bands (ev):

    -4.4328   1.7726   3.1774   5.3982

          k = 0.0000 0.8000 0.0000 (   452 PWs)   bands (ev):

    -3.0485   0.0735   3.5043   3.5043

          k = 0.8000 0.0000 0.8000 (   462 PWs)   bands (ev):

    -1.8081  -1.2113   2.0763   3.6258

          k = 0.6000-0.2000 1.0000 (   459 PWs)   bands (ev):

    -2.5920  -0.3142   2.1686   3.1820

     highest occupied level (ev):     6.2580

!    total energy              =     -15.84471346 Ry
     Harris-Foulkes estimate   =     -15.84471346 Ry
     estimated scf accuracy    <          5.8E-10 Ry

     The total energy is the sum of the following terms:

     one-electron contribution =       4.78801471 Ry
     hartree contribution      =       1.08725595 Ry
     xc contribution           =      -4.82022554 Ry
     ewald contribution        =     -16.89975858 Ry

     convergence has been achieved in   6 iterations

     Forces acting on atoms (Ry/au):

     atom    1 type  1   force =     0.00000000    0.00000000    0.00000000
     atom    2 type  1   force =     0.00000000    0.00000000    0.00000000

     Total force =     0.000000     Total SCF correction =     0.000000


     entering subroutine stress ...

          total   stress  (Ry/bohr**3)                   (kbar)     P=   -0.49
  -0.00000334  -0.00000000   0.00000000         -0.49     -0.00      0.00
  -0.00000000  -0.00000334   0.00000000         -0.00     -0.49      0.00
  -0.00000000   0.00000000  -0.00000334         -0.00      0.00     -0.49


     Writing output data file silicon.save

     init_run     :      0.07s CPU      0.08s WALL (       1 calls)
     electrons    :      0.31s CPU      0.32s WALL (       1 calls)
     forces       :      0.01s CPU      0.01s WALL (       1 calls)
     stress       :      0.02s CPU      0.02s WALL (       1 calls)

     Called by init_run:
     wfcinit      :      0.03s CPU      0.04s WALL (       1 calls)
     potinit      :      0.00s CPU      0.00s WALL (       1 calls)

     Called by electrons:
     c_bands      :      0.24s CPU      0.24s WALL (       7 calls)
     sum_band     :      0.06s CPU      0.06s WALL (       7 calls)
     v_of_rho     :      0.01s CPU      0.01s WALL (       7 calls)
     mix_rho      :      0.00s CPU      0.00s WALL (       7 calls)

     Called by c_bands:
     init_us_2    :      0.00s CPU      0.01s WALL (     170 calls)
     cegterg      :      0.24s CPU      0.24s WALL (      70 calls)

     Called by sum_band:

     Called by *egterg:
     h_psi        :      0.24s CPU      0.24s WALL (     208 calls)
     g_psi        :      0.00s CPU      0.00s WALL (     128 calls)
     cdiaghg      :      0.01s CPU      0.01s WALL (     188 calls)

     Called by h_psi:
     h_psi:pot    :      0.24s CPU      0.24s WALL (     208 calls)
     h_psi:calbec :      0.00s CPU      0.01s WALL (     208 calls)
     vloc_psi     :      0.23s CPU      0.23s WALL (     208 calls)
     add_vuspsi   :      0.00s CPU      0.00s WALL (     208 calls)

     General routines
     calbec       :      0.01s CPU      0.01s WALL (     258 calls)
     fft          :      0.02s CPU      0.01s WALL (      34 calls)
     fftw         :      0.25s CPU      0.24s WALL (    1940 calls)
     davcio       :      0.00s CPU      0.00s WALL (      10 calls)

     Parallel routines
     fft_scatter  :      0.02s CPU      0.02s WALL (    1974 calls)

     PWSCF        :     0.45s CPU         0.47s WALL


   This run was terminated on:  12:52: 9  22Jun2018            

=------------------------------------------------------------------------------=
   JOB DONE.
=------------------------------------------------------------------------------=
