
     Program PWSCF v.6.0 (svn rev. 13079) starts on  9Apr2018 at 16:18:11 

     This program is part of the open-source Quantum ESPRESSO suite
     for quantum simulation of materials; please cite
         "P. Giannozzi et al., J. Phys.:Condens. Matter 21 395502 (2009);
          URL http://www.quantum-espresso.org", 
     in publications or presentations arising from this work. More details at
     http://www.quantum-espresso.org/quote

     Parallel version (MPI), running on     1 processors
     Waiting for input...
     Reading input from standard input

     Current dimensions of program PWSCF are:
     Max number of different atomic species (ntypx) = 10
     Max number of k-points (npk) =  40000
     Max angular momentum in pseudopotentials (lmaxx) =  3
               file Ge.pbe-dn-rrkjus_psl.0.2.2.UPF: wavefunction(s)  3D renormalized

     Subspace diagonalization in iterative solution of the eigenvalue problem:
     a serial algorithm will be used


     G-vector sticks info
     --------------------
     sticks:   dense  smooth     PW     G-vecs:    dense   smooth      PW
     Sum         673     673    199                11311    11311    1917



     bravais-lattice index     =            2
     lattice parameter (alat)  =      11.0000  a.u.
     unit-cell volume          =     332.7500 (a.u.)^3
     number of atoms/cell      =            2
     number of atomic types    =            1
     number of electrons       =        28.00
     number of Kohn-Sham states=           14
     kinetic-energy cutoff     =      40.0000  Ry
     charge density cutoff     =     160.0000  Ry
     convergence threshold     =      1.0E-08
     mixing beta               =       0.7000
     number of iterations used =            8  plain     mixing
     Exchange-correlation      = PBE ( 1  4  3  4 0 0)

     celldm(1)=  11.000000  celldm(2)=   0.000000  celldm(3)=   0.000000
     celldm(4)=   0.000000  celldm(5)=   0.000000  celldm(6)=   0.000000

     crystal axes: (cart. coord. in units of alat)
               a(1) = (  -0.500000   0.000000   0.500000 )  
               a(2) = (   0.000000   0.500000   0.500000 )  
               a(3) = (  -0.500000   0.500000   0.000000 )  

     reciprocal axes: (cart. coord. in units 2 pi/alat)
               b(1) = ( -1.000000 -1.000000  1.000000 )  
               b(2) = (  1.000000  1.000000  1.000000 )  
               b(3) = ( -1.000000  1.000000 -1.000000 )  


     PseudoPot. # 1 for Ge read from file:
     PP/Ge.pbe-dn-rrkjus_psl.0.2.2.UPF
     MD5 check sum: b5a26a9a0beae25606acefd8f9632057
     Pseudo is Ultrasoft + core correction, Zval = 14.0
     Generated using "atomic" code by A. Dal Corso  v.5.0.2 svn rev. 9415
     Using radial grid of 1207 points,  6 beta functions with: 
                l(1) =   0
                l(2) =   0
                l(3) =   1
                l(4) =   1
                l(5) =   2
                l(6) =   2
     Q(r) pseudized with 0 coefficients 


     atomic species   valence    mass     pseudopotential
        Ge            14.00    72.64000     Ge( 1.00)

     48 Sym. Ops., with inversion, found (24 have fractional translation)



   Cartesian axes

     site n.     atom                  positions (alat units)
         1           Ge  tau(   1) = (   0.0000000   0.0000000   0.0000000  )
         2           Ge  tau(   2) = (  -0.2500000   0.2500000   0.2500000  )

     number of k points=     8
                       cart. coord. in units 2pi/alat
        k(    1) = (   0.0000000   0.0000000   0.0000000), wk =   0.0312500
        k(    2) = (  -0.2500000   0.2500000  -0.2500000), wk =   0.2500000
        k(    3) = (   0.5000000  -0.5000000   0.5000000), wk =   0.1250000
        k(    4) = (   0.0000000   0.5000000   0.0000000), wk =   0.1875000
        k(    5) = (   0.7500000  -0.2500000   0.7500000), wk =   0.7500000
        k(    6) = (   0.5000000   0.0000000   0.5000000), wk =   0.3750000
        k(    7) = (   0.0000000  -1.0000000   0.0000000), wk =   0.0937500
        k(    8) = (  -0.5000000  -1.0000000   0.0000000), wk =   0.1875000

     Dense  grid:    11311 G-vectors     FFT dimensions: (  32,  32,  32)

     Estimated max dynamical RAM per process >      12.83Mb

     Check: negative/imaginary core charge=   -0.000052    0.000000

     Initial potential from superposition of free atoms

     starting charge   27.99847, renormalised to   28.00000
     Starting wfc are   18 randomized atomic wfcs

     total cpu time spent up to now is        0.8 secs

     per-process dynamical memory:    16.0 Mb

     Self-consistent Calculation

     iteration #  1     ecut=    40.00 Ry     beta=0.70
     Davidson diagonalization with overlap
     ethr =  1.00E-02,  avg # of iterations =  1.5

     Threshold (ethr) on eigenvalues was too large:
     Diagonalizing with lowered threshold

     Davidson diagonalization with overlap
     ethr =  1.12E-04,  avg # of iterations =  2.5

     total cpu time spent up to now is        1.4 secs

     total energy              =    -422.79168815 Ry
     Harris-Foulkes estimate   =    -422.79727339 Ry
     estimated scf accuracy    <       0.03476276 Ry

     iteration #  2     ecut=    40.00 Ry     beta=0.70
     Davidson diagonalization with overlap
     ethr =  1.24E-04,  avg # of iterations =  1.0

     total cpu time spent up to now is        1.7 secs

     total energy              =    -422.79265083 Ry
     Harris-Foulkes estimate   =    -422.79265429 Ry
     estimated scf accuracy    <       0.00211314 Ry

     iteration #  3     ecut=    40.00 Ry     beta=0.70
     Davidson diagonalization with overlap
     ethr =  7.55E-06,  avg # of iterations =  2.2

     total cpu time spent up to now is        2.0 secs

     total energy              =    -422.79281389 Ry
     Harris-Foulkes estimate   =    -422.79285753 Ry
     estimated scf accuracy    <       0.00007981 Ry

     iteration #  4     ecut=    40.00 Ry     beta=0.70
     Davidson diagonalization with overlap
     ethr =  2.85E-07,  avg # of iterations =  2.8

     total cpu time spent up to now is        2.4 secs

     total energy              =    -422.79284944 Ry
     Harris-Foulkes estimate   =    -422.79285042 Ry
     estimated scf accuracy    <       0.00000785 Ry

     iteration #  5     ecut=    40.00 Ry     beta=0.70
     Davidson diagonalization with overlap
     ethr =  2.81E-08,  avg # of iterations =  2.4

     total cpu time spent up to now is        2.8 secs

     total energy              =    -422.79285070 Ry
     Harris-Foulkes estimate   =    -422.79285073 Ry
     estimated scf accuracy    <       0.00000027 Ry

     iteration #  6     ecut=    40.00 Ry     beta=0.70
     Davidson diagonalization with overlap
     ethr =  9.76E-10,  avg # of iterations =  2.4

     total cpu time spent up to now is        3.1 secs

     total energy              =    -422.79285074 Ry
     Harris-Foulkes estimate   =    -422.79285075 Ry
     estimated scf accuracy    <       0.00000003 Ry

     iteration #  7     ecut=    40.00 Ry     beta=0.70
     Davidson diagonalization with overlap
     ethr =  1.11E-10,  avg # of iterations =  2.2

     total cpu time spent up to now is        3.4 secs

     End of self-consistent calculation

          k = 0.0000 0.0000 0.0000 (  1411 PWs)   bands (ev):

   -17.2167 -17.2167 -17.2167 -17.1870 -17.1870 -17.0186 -17.0186 -17.0186
   -17.0111 -17.0111  -4.6872   6.7526   7.4649   7.4649

          k =-0.2500 0.2500-0.2500 (  1405 PWs)   bands (ev):

   -17.2312 -17.2312 -17.2096 -17.1646 -17.1646 -17.0408 -17.0408 -17.0267
   -16.9933 -16.9933  -4.0067   2.8272   6.6654   6.6654

          k = 0.5000-0.5000 0.5000 (  1404 PWs)   bands (ev):

   -17.2367 -17.2367 -17.2022 -17.1537 -17.1537 -17.0485 -17.0485 -17.0351
   -16.9875 -16.9875  -2.8001   0.2256   6.1827   6.1827

          k = 0.0000 0.5000 0.0000 (  1427 PWs)   bands (ev):

   -17.2318 -17.2318 -17.2206 -17.1604 -17.1327 -17.0881 -17.0360 -17.0002
   -16.9967 -16.9967  -3.7582   2.7063   5.6232   5.6232

          k = 0.7500-0.2500 0.7500 (  1423 PWs)   bands (ev):

   -17.2533 -17.2417 -17.1857 -17.1329 -17.1170 -17.1020 -17.0653 -17.0394
   -16.9813 -16.9700  -2.4062   0.2968   4.0764   5.2839

          k = 0.5000 0.0000 0.5000 (  1428 PWs)   bands (ev):

   -17.2496 -17.2434 -17.1813 -17.1519 -17.1309 -17.0735 -17.0570 -17.0486
   -16.9788 -16.9756  -2.9648   1.0813   3.9682   6.0966

          k = 0.0000-1.0000 0.0000 (  1428 PWs)   bands (ev):

   -17.2447 -17.2447 -17.1736 -17.1736 -17.0972 -17.0972 -17.0511 -17.0511
   -16.9766 -16.9766  -1.1210  -1.1210   4.6702   4.6702

          k =-0.5000-1.0000 0.0000 (  1424 PWs)   bands (ev):

   -17.2552 -17.2552 -17.1408 -17.1408 -17.1027 -17.1027 -17.0775 -17.0775
   -16.9670 -16.9670  -1.0464  -1.0464   3.9450   3.9450

     highest occupied level (ev):     7.4649

!    total energy              =    -422.79285075 Ry
     Harris-Foulkes estimate   =    -422.79285075 Ry
     estimated scf accuracy    <          6.4E-11 Ry

     The total energy is the sum of the following terms:

     one-electron contribution =    -283.62284900 Ry
     hartree contribution      =     166.44692205 Ry
     xc contribution           =    -113.65102985 Ry
     ewald contribution        =    -191.96589395 Ry

     convergence has been achieved in   7 iterations


     entering subroutine stress ...

          total   stress  (Ry/bohr**3)                   (kbar)     P=   -0.77
  -0.00000522  -0.00000000  -0.00000000         -0.77     -0.00     -0.00
  -0.00000000  -0.00000522   0.00000000         -0.00     -0.77      0.00
  -0.00000000   0.00000000  -0.00000522         -0.00      0.00     -0.77


     Writing output data file germanium.save

     init_run     :      0.56s CPU      0.57s WALL (       1 calls)
     electrons    :      2.56s CPU      2.60s WALL (       1 calls)
     stress       :      0.31s CPU      0.31s WALL (       1 calls)

     Called by init_run:
     wfcinit      :      0.12s CPU      0.12s WALL (       1 calls)
     potinit      :      0.02s CPU      0.02s WALL (       1 calls)

     Called by electrons:
     c_bands      :      1.75s CPU      1.75s WALL (       8 calls)
     sum_band     :      0.54s CPU      0.54s WALL (       8 calls)
     v_of_rho     :      0.11s CPU      0.11s WALL (       8 calls)
     newd         :      0.19s CPU      0.20s WALL (       8 calls)
     mix_rho      :      0.00s CPU      0.01s WALL (       8 calls)

     Called by c_bands:
     init_us_2    :      0.07s CPU      0.07s WALL (     144 calls)
     cegterg      :      1.61s CPU      1.63s WALL (      64 calls)

     Called by sum_band:
     sum_band:bec :      0.00s CPU      0.00s WALL (      64 calls)
     addusdens    :      0.22s CPU      0.23s WALL (       8 calls)

     Called by *egterg:
     h_psi        :      1.11s CPU      1.12s WALL (     208 calls)
     s_psi        :      0.16s CPU      0.15s WALL (     208 calls)
     g_psi        :      0.01s CPU      0.01s WALL (     136 calls)
     cdiaghg      :      0.05s CPU      0.05s WALL (     192 calls)

     Called by h_psi:
     h_psi:pot    :      1.11s CPU      1.11s WALL (     208 calls)
     h_psi:calbec :      0.17s CPU      0.18s WALL (     208 calls)
     vloc_psi     :      0.78s CPU      0.78s WALL (     208 calls)
     add_vuspsi   :      0.16s CPU      0.16s WALL (     208 calls)

     General routines
     calbec       :      0.25s CPU      0.25s WALL (     280 calls)
     fft          :      0.02s CPU      0.03s WALL (     120 calls)
     fftw         :      0.76s CPU      0.75s WALL (    5532 calls)
     davcio       :      0.00s CPU      0.00s WALL (       8 calls)

     Parallel routines
     fft_scatter  :      0.18s CPU      0.19s WALL (    5652 calls)

     PWSCF        :     3.67s CPU         3.74s WALL


   This run was terminated on:  16:18:15   9Apr2018            

=------------------------------------------------------------------------------=
   JOB DONE.
=------------------------------------------------------------------------------=
