
     Program PWSCF v.6.0 (svn rev. 13079) starts on 16Apr2018 at 16:25:27 

     This program is part of the open-source Quantum ESPRESSO suite
     for quantum simulation of materials; please cite
         "P. Giannozzi et al., J. Phys.:Condens. Matter 21 395502 (2009);
          URL http://www.quantum-espresso.org", 
     in publications or presentations arising from this work. More details at
     http://www.quantum-espresso.org/quote

     Parallel version (MPI), running on     1 processors
     Waiting for input...
     Reading input from standard input
     Message from routine read_cards :
     DEPRECATED: no units specified in ATOMIC_POSITIONS card
     Message from routine read_cards :
     ATOMIC_POSITIONS: units set to alat

     Current dimensions of program PWSCF are:
     Max number of different atomic species (ntypx) = 10
     Max number of k-points (npk) =  40000
     Max angular momentum in pseudopotentials (lmaxx) =  3

     Subspace diagonalization in iterative solution of the eigenvalue problem:
     a serial algorithm will be used


     G-vector sticks info
     --------------------
     sticks:   dense  smooth     PW     G-vecs:    dense   smooth      PW
     Sum         139     139     55                 1067     1067     283



     bravais-lattice index     =            2
     lattice parameter (alat)  =       7.5000  a.u.
     unit-cell volume          =     105.4688 (a.u.)^3
     number of atoms/cell      =            1
     number of atomic types    =            1
     number of electrons       =         3.00
     number of Kohn-Sham states=            6
     kinetic-energy cutoff     =      18.0000  Ry
     charge density cutoff     =      72.0000  Ry
     convergence threshold     =      1.0E-06
     mixing beta               =       0.7000
     number of iterations used =            8  plain     mixing
     Exchange-correlation      =  SLA  PZ   NOGX NOGC ( 1  1  0  0 0 0)

     celldm(1)=   7.500000  celldm(2)=   0.000000  celldm(3)=   0.000000
     celldm(4)=   0.000000  celldm(5)=   0.000000  celldm(6)=   0.000000

     crystal axes: (cart. coord. in units of alat)
               a(1) = (  -0.500000   0.000000   0.500000 )  
               a(2) = (   0.000000   0.500000   0.500000 )  
               a(3) = (  -0.500000   0.500000   0.000000 )  

     reciprocal axes: (cart. coord. in units 2 pi/alat)
               b(1) = ( -1.000000 -1.000000  1.000000 )  
               b(2) = (  1.000000  1.000000  1.000000 )  
               b(3) = ( -1.000000  1.000000 -1.000000 )  


     PseudoPot. # 1 for Al read from file:
     ../../../PP/Al.pz-vbc.UPF
     MD5 check sum: f06ceae8da0fe5c02c98e3688433298c
     Pseudo is Norm-conserving, Zval =  3.0
     Generated by new atomic code, or converted to UPF format
     Using radial grid of  171 points,  2 beta functions with: 
                l(1) =   0
                l(2) =   1

     atomic species   valence    mass     pseudopotential
        Al             3.00    26.98000     Al( 1.00)

     48 Sym. Ops., with inversion, found



   Cartesian axes

     site n.     atom                  positions (alat units)
         1           Al  tau(   1) = (   0.0000000   0.0000000   0.0000000  )

     number of k points=    56  Marzari-Vanderbilt smearing, width (Ry)=  0.0500
                       cart. coord. in units 2pi/alat
        k(    1) = (   0.0000000   0.0000000   0.0000000), wk =   0.0015026
        k(    2) = (  -0.0909091   0.0909091  -0.0909091), wk =   0.0120210
        k(    3) = (  -0.1818182   0.1818182  -0.1818182), wk =   0.0120210
        k(    4) = (  -0.2727273   0.2727273  -0.2727273), wk =   0.0120210
        k(    5) = (  -0.3636364   0.3636364  -0.3636364), wk =   0.0120210
        k(    6) = (  -0.4545455   0.4545455  -0.4545455), wk =   0.0120210
        k(    7) = (   0.0000000   0.1818182   0.0000000), wk =   0.0090158
        k(    8) = (  -0.0909091   0.2727273  -0.0909091), wk =   0.0360631
        k(    9) = (  -0.1818182   0.3636364  -0.1818182), wk =   0.0360631
        k(   10) = (  -0.2727273   0.4545455  -0.2727273), wk =   0.0360631
        k(   11) = (  -0.3636364   0.5454545  -0.3636364), wk =   0.0360631
        k(   12) = (   0.5454545  -0.3636364   0.5454545), wk =   0.0360631
        k(   13) = (   0.4545455  -0.2727273   0.4545455), wk =   0.0360631
        k(   14) = (   0.3636364  -0.1818182   0.3636364), wk =   0.0360631
        k(   15) = (   0.2727273  -0.0909091   0.2727273), wk =   0.0360631
        k(   16) = (   0.1818182  -0.0000000   0.1818182), wk =   0.0180316
        k(   17) = (   0.0000000   0.3636364   0.0000000), wk =   0.0090158
        k(   18) = (  -0.0909091   0.4545455  -0.0909091), wk =   0.0360631
        k(   19) = (  -0.1818182   0.5454545  -0.1818182), wk =   0.0360631
        k(   20) = (  -0.2727273   0.6363636  -0.2727273), wk =   0.0360631
        k(   21) = (   0.6363636  -0.2727273   0.6363636), wk =   0.0360631
        k(   22) = (   0.5454545  -0.1818182   0.5454545), wk =   0.0360631
        k(   23) = (   0.4545455  -0.0909091   0.4545455), wk =   0.0360631
        k(   24) = (   0.3636364   0.0000000   0.3636364), wk =   0.0180316
        k(   25) = (   0.0000000   0.5454545   0.0000000), wk =   0.0090158
        k(   26) = (  -0.0909091   0.6363636  -0.0909091), wk =   0.0360631
        k(   27) = (  -0.1818182   0.7272727  -0.1818182), wk =   0.0360631
        k(   28) = (   0.7272727  -0.1818182   0.7272727), wk =   0.0360631
        k(   29) = (   0.6363636  -0.0909091   0.6363636), wk =   0.0360631
        k(   30) = (   0.5454545   0.0000000   0.5454545), wk =   0.0180316
        k(   31) = (   0.0000000   0.7272727   0.0000000), wk =   0.0090158
        k(   32) = (  -0.0909091   0.8181818  -0.0909091), wk =   0.0360631
        k(   33) = (   0.8181818  -0.0909091   0.8181818), wk =   0.0360631
        k(   34) = (   0.7272727   0.0000000   0.7272727), wk =   0.0180316
        k(   35) = (   0.0000000   0.9090909   0.0000000), wk =   0.0090158
        k(   36) = (   0.9090909  -0.0000000   0.9090909), wk =   0.0180316
        k(   37) = (  -0.1818182   0.3636364   0.0000000), wk =   0.0360631
        k(   38) = (  -0.2727273   0.4545455  -0.0909091), wk =   0.0721262
        k(   39) = (  -0.3636364   0.5454545  -0.1818182), wk =   0.0721262
        k(   40) = (   0.5454545  -0.3636364   0.7272727), wk =   0.0721262
        k(   41) = (  -0.1818182   0.5454545   0.0000000), wk =   0.0360631
        k(   42) = (  -0.2727273   0.6363636  -0.0909091), wk =   0.0721262
        k(   43) = (   0.6363636  -0.2727273   0.8181818), wk =   0.0721262
        k(   44) = (   0.5454545  -0.1818182   0.7272727), wk =   0.0721262
        k(   45) = (   0.4545455  -0.0909091   0.6363636), wk =   0.0721262
        k(   46) = (   0.3636364   0.0000000   0.5454545), wk =   0.0360631
        k(   47) = (  -0.1818182   0.7272727   0.0000000), wk =   0.0360631
        k(   48) = (   0.7272727  -0.1818182   0.9090909), wk =   0.0721262
        k(   49) = (   0.6363636  -0.0909091   0.8181818), wk =   0.0721262
        k(   50) = (   0.5454545   0.0000000   0.7272727), wk =   0.0360631
        k(   51) = (   0.8181818  -0.0909091   1.0000000), wk =   0.0360631
        k(   52) = (   0.7272727   0.0000000   0.9090909), wk =   0.0360631
        k(   53) = (   0.6363636  -0.2727273   1.0000000), wk =   0.0360631
        k(   54) = (   0.5454545  -0.1818182   0.9090909), wk =   0.0721262
        k(   55) = (   0.6363636  -0.0909091   1.0000000), wk =   0.0360631
        k(   56) = (   0.5454545   0.0000000   0.9090909), wk =   0.0360631

     Dense  grid:     1067 G-vectors     FFT dimensions: (  15,  15,  15)

     Estimated max dynamical RAM per process >       1.44Mb

     Initial potential from superposition of free atoms

     starting charge    2.99794, renormalised to    3.00000
     Starting wfc are    4 randomized atomic wfcs +    2 random wfc

     total cpu time spent up to now is        0.1 secs

     per-process dynamical memory:     5.3 Mb

     Self-consistent Calculation

     iteration #  1     ecut=    18.00 Ry     beta=0.70
     Davidson diagonalization with overlap
     ethr =  1.00E-02,  avg # of iterations =  4.4

     Threshold (ethr) on eigenvalues was too large:
     Diagonalizing with lowered threshold

     Davidson diagonalization with overlap
     ethr =  1.92E-04,  avg # of iterations =  1.4

     total cpu time spent up to now is        0.3 secs

     total energy              =      -4.18932950 Ry
     Harris-Foulkes estimate   =      -4.19010393 Ry
     estimated scf accuracy    <       0.00575807 Ry

     iteration #  2     ecut=    18.00 Ry     beta=0.70
     Davidson diagonalization with overlap
     ethr =  1.92E-04,  avg # of iterations =  1.0

     total cpu time spent up to now is        0.4 secs

     total energy              =      -4.18932906 Ry
     Harris-Foulkes estimate   =      -4.18935404 Ry
     estimated scf accuracy    <       0.00044611 Ry

     iteration #  3     ecut=    18.00 Ry     beta=0.70
     Davidson diagonalization with overlap
     ethr =  1.49E-05,  avg # of iterations =  1.5

     total cpu time spent up to now is        0.5 secs

     End of self-consistent calculation

          k = 0.0000 0.0000 0.0000 (   137 PWs)   bands (ev):

    -3.1928  21.1702  21.1704  22.5471  22.5471  22.5471

          k =-0.0909 0.0909-0.0909 (   138 PWs)   bands (ev):

    -2.9572  18.1404  20.4835  20.4836  23.2916  23.5841

          k =-0.1818 0.1818-0.1818 (   144 PWs)   bands (ev):

    -2.2540  14.4221  19.7290  19.7290  23.1039  24.4713

          k =-0.2727 0.2727-0.2727 (   144 PWs)   bands (ev):

    -1.0932  10.9360  19.3137  19.3138  22.9162  22.9232

          k =-0.3636 0.3636-0.3636 (   144 PWs)   bands (ev):

     0.5092   7.7731  19.2697  19.2697  21.4418  21.4419

          k =-0.4545 0.4545-0.4545 (   138 PWs)   bands (ev):

     2.5330   4.9706  19.6066  19.6066  20.3336  20.3337

          k = 0.0000 0.1818 0.0000 (   141 PWs)   bands (ev):

    -2.8788  19.1886  19.1886  19.4620  21.9251  24.9971

          k =-0.0909 0.2727-0.0909 (   141 PWs)   bands (ev):

    -2.3317  15.7632  18.2489  19.6152  22.2599  22.9838

          k =-0.1818 0.3636-0.1818 (   140 PWs)   bands (ev):

    -1.3241  12.2285  17.6876  19.2821  20.6163  24.4263

          k =-0.2727 0.4545-0.2727 (   140 PWs)   bands (ev):

     0.1301   8.9704  17.5068  18.8954  19.2346  23.9946

          k =-0.3636 0.5455-0.3636 (   136 PWs)   bands (ev):

     2.0124   6.0537  17.6746  17.7110  19.4327  22.7731

          k = 0.5455-0.3636 0.5455 (   136 PWs)   bands (ev):

     3.4823   4.3247  16.8071  18.2992  20.0678  21.9239

          k = 0.4545-0.2727 0.4545 (   139 PWs)   bands (ev):

     1.3387   6.9836  16.3381  19.2763  21.0949  21.4617

          k = 0.3636-0.1818 0.3636 (   140 PWs)   bands (ev):

    -0.4032  10.0134  16.2747  20.6050  21.4108  22.4940

          k = 0.2727-0.0909 0.2727 (   143 PWs)   bands (ev):

    -1.7106  13.3469  16.6319  21.5428  22.4056  24.0908

          k = 0.1818-0.0000 0.1818 (   143 PWs)   bands (ev):

    -2.5658  16.6002  17.6978  21.7804  22.8355  23.9644

          k = 0.0000 0.3636 0.0000 (   141 PWs)   bands (ev):

    -1.9429  17.1599  17.1599  17.1848  20.1803  20.6283

          k =-0.0909 0.4545-0.0909 (   139 PWs)   bands (ev):

    -1.0927  13.8334  16.4627  17.6994  18.0896  21.1432

          k =-0.1818 0.5455-0.1818 (   138 PWs)   bands (ev):

     0.2062  10.5470  16.1088  16.1498  17.8483  23.2694

          k =-0.2727 0.6364-0.2727 (   140 PWs)   bands (ev):

     1.9362   7.5454  14.6905  16.2202  18.0079  25.6227

          k = 0.6364-0.2727 0.6364 (   136 PWs)   bands (ev):

     4.0568   4.9120  13.6733  16.6774  18.5474  24.6538

          k = 0.5455-0.1818 0.5455 (   131 PWs)   bands (ev):

     2.6064   6.6085  13.0791  17.5226  19.4878  24.0649

          k = 0.4545-0.0909 0.4545 (   137 PWs)   bands (ev):

     0.7364   9.4407  12.9531  18.7539  20.8097  23.8453

          k = 0.3636 0.0000 0.3636 (   137 PWs)   bands (ev):

    -0.7091  12.1307  13.7259  20.3615  22.4627  23.6063

          k = 0.0000 0.5455 0.0000 (   133 PWs)   bands (ev):

    -0.4026  15.3813  15.5680  15.6329  15.6329  19.3046

          k =-0.0909 0.6364-0.0909 (   135 PWs)   bands (ev):

     0.7364  12.4170  13.5945  15.1883  16.4387  19.9786

          k =-0.1818 0.7273-0.1818 (   137 PWs)   bands (ev):

     2.3064   9.4044  12.0093  15.1286  16.7182  22.3514

          k = 0.7273-0.1818 0.7273 (   132 PWs)   bands (ev):

     4.2764   6.6858  10.8412  15.4540  17.1825  25.3277

          k = 0.6364-0.0909 0.6364 (   135 PWs)   bands (ev):

     4.2887   6.6164  10.1490  16.1628  18.0230  27.0814

          k = 0.5455 0.0000 0.5455 (   136 PWs)   bands (ev):

     2.3091   8.7776  10.4105  17.2620  19.2490  26.6161

          k = 0.0000 0.7273 0.0000 (   129 PWs)   bands (ev):

     1.7112  11.4036  14.1602  14.6177  14.6177  18.2979

          k =-0.0909 0.8182-0.0909 (   135 PWs)   bands (ev):

     3.1111   9.6396  11.6266  14.4271  15.5716  19.2268

          k = 0.8182-0.0909 0.8182 (   131 PWs)   bands (ev):

     4.8845   8.2491   9.0054  14.6218  16.1347  21.8716

          k = 0.7273 0.0000 0.7273 (   134 PWs)   bands (ev):

     6.3374   6.5621   8.1078  15.1984  16.8966  25.1253

          k = 0.0000 0.9091 0.0000 (   133 PWs)   bands (ev):

     4.3112   7.7802  13.5463  14.1114  14.1114  17.7599

          k = 0.9091-0.0000 0.9091 (   130 PWs)   bands (ev):

     5.4626   6.7887  11.3371  14.1764  15.2805  18.9692

          k =-0.1818 0.3636 0.0000 (   137 PWs)   bands (ev):

    -1.6329  14.3737  15.7278  20.3989  20.4855  22.3557

          k =-0.2727 0.4545-0.0909 (   138 PWs)   bands (ev):

    -0.4795  11.3997  14.8100  18.4913  20.7460  23.8353

          k =-0.3636 0.5455-0.1818 (   140 PWs)   bands (ev):

     1.1129   8.3164  14.6800  16.9576  20.8155  23.1360

          k = 0.5455-0.3636 0.7273 (   136 PWs)   bands (ev):

     3.1216   5.5460  14.9582  15.8583  21.1654  22.0580

          k =-0.1818 0.5455 0.0000 (   137 PWs)   bands (ev):

    -0.0978  12.6915  14.1156  15.9317  18.8874  21.1061

          k =-0.2727 0.6364-0.0909 (   137 PWs)   bands (ev):

     1.3379   9.9912  13.3501  14.3113  19.4853  22.9188

          k = 0.6364-0.2727 0.8182 (   135 PWs)   bands (ev):

     3.1930   7.1747  12.7446  13.7593  19.8620  24.7697

          k = 0.5455-0.1818 0.7273 (   132 PWs)   bands (ev):

     4.6335   5.4800  11.9397  14.2844  20.5303  24.0646

          k = 0.4545-0.0909 0.6364 (   134 PWs)   bands (ev):

     2.5313   8.0289  11.5515  15.2849  21.5446  23.5258

          k = 0.3636 0.0000 0.5455 (   141 PWs)   bands (ev):

     0.8115  10.4504  12.0837  16.6960  22.7892  22.8258

          k =-0.1818 0.7273 0.0000 (   132 PWs)   bands (ev):

     2.0093  11.5676  11.6178  13.2171  17.7871  20.1733

          k = 0.7273-0.1818 0.9091 (   131 PWs)   bands (ev):

     3.6972   9.1071  10.2645  12.7358  18.6789  22.2455

          k = 0.6364-0.0909 0.8182 (   132 PWs)   bands (ev):

     5.7202   6.6070   9.2828  13.1304  19.3415  25.2448

          k = 0.5455 0.0000 0.7273 (   136 PWs)   bands (ev):

     4.3603   7.6670   9.2428  13.9984  20.2842  26.2094

          k = 0.8182-0.0909 1.0000 (   129 PWs)   bands (ev):

     4.5993   8.0621  11.0051  12.6231  17.2335  19.6794

          k = 0.7273 0.0000 0.9091 (   131 PWs)   bands (ev):

     6.0115   7.3508   8.9341  12.4405  18.4057  22.0100

          k = 0.6364-0.2727 1.0000 (   136 PWs)   bands (ev):

     2.8985   9.3338  10.8774  12.7169  21.7366  23.2789

          k = 0.5455-0.1818 0.9091 (   137 PWs)   bands (ev):

     4.8536   7.1783  10.5437  11.6460  22.6866  23.6434

          k = 0.6364-0.0909 1.0000 (   131 PWs)   bands (ev):

     5.4542   8.7769   8.8307  10.6267  21.1914  22.9710

          k = 0.5455 0.0000 0.9091 (   135 PWs)   bands (ev):

     6.8461   7.1143   8.5788  10.6107  22.4874  25.3424

     the Fermi energy is     8.3141 ev

!    total energy              =      -4.18933203 Ry
     Harris-Foulkes estimate   =      -4.18933193 Ry
     estimated scf accuracy    <       0.00000030 Ry

     The total energy is the sum of the following terms:

     one-electron contribution =       2.93721370 Ry
     hartree contribution      =       0.00979027 Ry
     xc contribution           =      -1.63467819 Ry
     ewald contribution        =      -5.50183451 Ry
     smearing contrib. (-TS)   =       0.00017671 Ry

     convergence has been achieved in   3 iterations

     Forces acting on atoms (Ry/au):

     atom    1 type  1   force =     0.00000000    0.00000000    0.00000000

     Total force =     0.000000     Total SCF correction =     0.000000


     entering subroutine stress ...

          total   stress  (Ry/bohr**3)                   (kbar)     P=   -9.39
  -0.00006381   0.00000000   0.00000000         -9.39      0.00      0.00
   0.00000000  -0.00006381   0.00000000          0.00     -9.39      0.00
   0.00000000   0.00000000  -0.00006381          0.00      0.00     -9.39


     Writing output data file aluminium.save

     init_run     :      0.04s CPU      0.05s WALL (       1 calls)
     electrons    :      0.38s CPU      0.43s WALL (       1 calls)
     forces       :      0.00s CPU      0.01s WALL (       1 calls)
     stress       :      0.04s CPU      0.03s WALL (       1 calls)

     Called by init_run:
     wfcinit      :      0.03s CPU      0.04s WALL (       1 calls)
     potinit      :      0.00s CPU      0.00s WALL (       1 calls)

     Called by electrons:
     c_bands      :      0.34s CPU      0.38s WALL (       4 calls)
     sum_band     :      0.04s CPU      0.05s WALL (       4 calls)
     v_of_rho     :      0.00s CPU      0.00s WALL (       4 calls)
     mix_rho      :      0.00s CPU      0.00s WALL (       4 calls)

     Called by c_bands:
     init_us_2    :      0.01s CPU      0.02s WALL (     616 calls)
     cegterg      :      0.32s CPU      0.36s WALL (     224 calls)

     Called by sum_band:

     Called by *egterg:
     h_psi        :      0.25s CPU      0.26s WALL (     742 calls)
     g_psi        :      0.00s CPU      0.00s WALL (     462 calls)
     cdiaghg      :      0.04s CPU      0.05s WALL (     630 calls)

     Called by h_psi:
     h_psi:pot    :      0.25s CPU      0.26s WALL (     742 calls)
     h_psi:calbec :      0.02s CPU      0.01s WALL (     742 calls)
     vloc_psi     :      0.22s CPU      0.24s WALL (     742 calls)
     add_vuspsi   :      0.01s CPU      0.01s WALL (     742 calls)

     General routines
     calbec       :      0.02s CPU      0.01s WALL (    1022 calls)
     fft          :      0.00s CPU      0.00s WALL (      22 calls)
     fftw         :      0.18s CPU      0.23s WALL (    8886 calls)
     davcio       :      0.00s CPU      0.00s WALL (      56 calls)

     Parallel routines
     fft_scatter  :      0.03s CPU      0.03s WALL (    8908 calls)

     PWSCF        :     0.58s CPU         0.67s WALL


   This run was terminated on:  16:25:27  16Apr2018            

=------------------------------------------------------------------------------=
   JOB DONE.
=------------------------------------------------------------------------------=
