
     Program PWSCF v.6.0 (svn rev. 13079) starts on 16Apr2018 at 16:25:28 

     This program is part of the open-source Quantum ESPRESSO suite
     for quantum simulation of materials; please cite
         "P. Giannozzi et al., J. Phys.:Condens. Matter 21 395502 (2009);
          URL http://www.quantum-espresso.org", 
     in publications or presentations arising from this work. More details at
     http://www.quantum-espresso.org/quote

     Parallel version (MPI), running on     1 processors
     Waiting for input...
     Reading input from standard input
     Message from routine read_cards :
     DEPRECATED: no units specified in ATOMIC_POSITIONS card
     Message from routine read_cards :
     ATOMIC_POSITIONS: units set to alat

     Current dimensions of program PWSCF are:
     Max number of different atomic species (ntypx) = 10
     Max number of k-points (npk) =  40000
     Max angular momentum in pseudopotentials (lmaxx) =  3

     Subspace diagonalization in iterative solution of the eigenvalue problem:
     a serial algorithm will be used


     G-vector sticks info
     --------------------
     sticks:   dense  smooth     PW     G-vecs:    dense   smooth      PW
     Sum         151     151     55                 1243     1243     283



     bravais-lattice index     =            2
     lattice parameter (alat)  =       7.5000  a.u.
     unit-cell volume          =     105.4688 (a.u.)^3
     number of atoms/cell      =            1
     number of atomic types    =            1
     number of electrons       =         3.00
     number of Kohn-Sham states=            6
     kinetic-energy cutoff     =      19.0000  Ry
     charge density cutoff     =      76.0000  Ry
     convergence threshold     =      1.0E-06
     mixing beta               =       0.7000
     number of iterations used =            8  plain     mixing
     Exchange-correlation      =  SLA  PZ   NOGX NOGC ( 1  1  0  0 0 0)

     celldm(1)=   7.500000  celldm(2)=   0.000000  celldm(3)=   0.000000
     celldm(4)=   0.000000  celldm(5)=   0.000000  celldm(6)=   0.000000

     crystal axes: (cart. coord. in units of alat)
               a(1) = (  -0.500000   0.000000   0.500000 )  
               a(2) = (   0.000000   0.500000   0.500000 )  
               a(3) = (  -0.500000   0.500000   0.000000 )  

     reciprocal axes: (cart. coord. in units 2 pi/alat)
               b(1) = ( -1.000000 -1.000000  1.000000 )  
               b(2) = (  1.000000  1.000000  1.000000 )  
               b(3) = ( -1.000000  1.000000 -1.000000 )  


     PseudoPot. # 1 for Al read from file:
     ../../../PP/Al.pz-vbc.UPF
     MD5 check sum: f06ceae8da0fe5c02c98e3688433298c
     Pseudo is Norm-conserving, Zval =  3.0
     Generated by new atomic code, or converted to UPF format
     Using radial grid of  171 points,  2 beta functions with: 
                l(1) =   0
                l(2) =   1

     atomic species   valence    mass     pseudopotential
        Al             3.00    26.98000     Al( 1.00)

     48 Sym. Ops., with inversion, found



   Cartesian axes

     site n.     atom                  positions (alat units)
         1           Al  tau(   1) = (   0.0000000   0.0000000   0.0000000  )

     number of k points=    56  Marzari-Vanderbilt smearing, width (Ry)=  0.0500
                       cart. coord. in units 2pi/alat
        k(    1) = (   0.0000000   0.0000000   0.0000000), wk =   0.0015026
        k(    2) = (  -0.0909091   0.0909091  -0.0909091), wk =   0.0120210
        k(    3) = (  -0.1818182   0.1818182  -0.1818182), wk =   0.0120210
        k(    4) = (  -0.2727273   0.2727273  -0.2727273), wk =   0.0120210
        k(    5) = (  -0.3636364   0.3636364  -0.3636364), wk =   0.0120210
        k(    6) = (  -0.4545455   0.4545455  -0.4545455), wk =   0.0120210
        k(    7) = (   0.0000000   0.1818182   0.0000000), wk =   0.0090158
        k(    8) = (  -0.0909091   0.2727273  -0.0909091), wk =   0.0360631
        k(    9) = (  -0.1818182   0.3636364  -0.1818182), wk =   0.0360631
        k(   10) = (  -0.2727273   0.4545455  -0.2727273), wk =   0.0360631
        k(   11) = (  -0.3636364   0.5454545  -0.3636364), wk =   0.0360631
        k(   12) = (   0.5454545  -0.3636364   0.5454545), wk =   0.0360631
        k(   13) = (   0.4545455  -0.2727273   0.4545455), wk =   0.0360631
        k(   14) = (   0.3636364  -0.1818182   0.3636364), wk =   0.0360631
        k(   15) = (   0.2727273  -0.0909091   0.2727273), wk =   0.0360631
        k(   16) = (   0.1818182  -0.0000000   0.1818182), wk =   0.0180316
        k(   17) = (   0.0000000   0.3636364   0.0000000), wk =   0.0090158
        k(   18) = (  -0.0909091   0.4545455  -0.0909091), wk =   0.0360631
        k(   19) = (  -0.1818182   0.5454545  -0.1818182), wk =   0.0360631
        k(   20) = (  -0.2727273   0.6363636  -0.2727273), wk =   0.0360631
        k(   21) = (   0.6363636  -0.2727273   0.6363636), wk =   0.0360631
        k(   22) = (   0.5454545  -0.1818182   0.5454545), wk =   0.0360631
        k(   23) = (   0.4545455  -0.0909091   0.4545455), wk =   0.0360631
        k(   24) = (   0.3636364   0.0000000   0.3636364), wk =   0.0180316
        k(   25) = (   0.0000000   0.5454545   0.0000000), wk =   0.0090158
        k(   26) = (  -0.0909091   0.6363636  -0.0909091), wk =   0.0360631
        k(   27) = (  -0.1818182   0.7272727  -0.1818182), wk =   0.0360631
        k(   28) = (   0.7272727  -0.1818182   0.7272727), wk =   0.0360631
        k(   29) = (   0.6363636  -0.0909091   0.6363636), wk =   0.0360631
        k(   30) = (   0.5454545   0.0000000   0.5454545), wk =   0.0180316
        k(   31) = (   0.0000000   0.7272727   0.0000000), wk =   0.0090158
        k(   32) = (  -0.0909091   0.8181818  -0.0909091), wk =   0.0360631
        k(   33) = (   0.8181818  -0.0909091   0.8181818), wk =   0.0360631
        k(   34) = (   0.7272727   0.0000000   0.7272727), wk =   0.0180316
        k(   35) = (   0.0000000   0.9090909   0.0000000), wk =   0.0090158
        k(   36) = (   0.9090909  -0.0000000   0.9090909), wk =   0.0180316
        k(   37) = (  -0.1818182   0.3636364   0.0000000), wk =   0.0360631
        k(   38) = (  -0.2727273   0.4545455  -0.0909091), wk =   0.0721262
        k(   39) = (  -0.3636364   0.5454545  -0.1818182), wk =   0.0721262
        k(   40) = (   0.5454545  -0.3636364   0.7272727), wk =   0.0721262
        k(   41) = (  -0.1818182   0.5454545   0.0000000), wk =   0.0360631
        k(   42) = (  -0.2727273   0.6363636  -0.0909091), wk =   0.0721262
        k(   43) = (   0.6363636  -0.2727273   0.8181818), wk =   0.0721262
        k(   44) = (   0.5454545  -0.1818182   0.7272727), wk =   0.0721262
        k(   45) = (   0.4545455  -0.0909091   0.6363636), wk =   0.0721262
        k(   46) = (   0.3636364   0.0000000   0.5454545), wk =   0.0360631
        k(   47) = (  -0.1818182   0.7272727   0.0000000), wk =   0.0360631
        k(   48) = (   0.7272727  -0.1818182   0.9090909), wk =   0.0721262
        k(   49) = (   0.6363636  -0.0909091   0.8181818), wk =   0.0721262
        k(   50) = (   0.5454545   0.0000000   0.7272727), wk =   0.0360631
        k(   51) = (   0.8181818  -0.0909091   1.0000000), wk =   0.0360631
        k(   52) = (   0.7272727   0.0000000   0.9090909), wk =   0.0360631
        k(   53) = (   0.6363636  -0.2727273   1.0000000), wk =   0.0360631
        k(   54) = (   0.5454545  -0.1818182   0.9090909), wk =   0.0721262
        k(   55) = (   0.6363636  -0.0909091   1.0000000), wk =   0.0360631
        k(   56) = (   0.5454545   0.0000000   0.9090909), wk =   0.0360631

     Dense  grid:     1243 G-vectors     FFT dimensions: (  15,  15,  15)

     Estimated max dynamical RAM per process >       1.58Mb

     Initial potential from superposition of free atoms

     starting charge    2.99794, renormalised to    3.00000
     Starting wfc are    4 randomized atomic wfcs +    2 random wfc

     total cpu time spent up to now is        0.1 secs

     per-process dynamical memory:     5.5 Mb

     Self-consistent Calculation

     iteration #  1     ecut=    19.00 Ry     beta=0.70
     Davidson diagonalization with overlap
     ethr =  1.00E-02,  avg # of iterations =  4.5

     Threshold (ethr) on eigenvalues was too large:
     Diagonalizing with lowered threshold

     Davidson diagonalization with overlap
     ethr =  1.92E-04,  avg # of iterations =  1.3

     total cpu time spent up to now is        0.3 secs

     total energy              =      -4.18960097 Ry
     Harris-Foulkes estimate   =      -4.19036922 Ry
     estimated scf accuracy    <       0.00574718 Ry

     iteration #  2     ecut=    19.00 Ry     beta=0.70
     Davidson diagonalization with overlap
     ethr =  1.92E-04,  avg # of iterations =  1.0

     total cpu time spent up to now is        0.4 secs

     total energy              =      -4.18960156 Ry
     Harris-Foulkes estimate   =      -4.18962537 Ry
     estimated scf accuracy    <       0.00044536 Ry

     iteration #  3     ecut=    19.00 Ry     beta=0.70
     Davidson diagonalization with overlap
     ethr =  1.48E-05,  avg # of iterations =  1.7

     total cpu time spent up to now is        0.5 secs

     End of self-consistent calculation

          k = 0.0000 0.0000 0.0000 (   169 PWs)   bands (ev):

    -3.1928  21.1684  21.1684  22.5366  22.5366  22.5366

          k =-0.0909 0.0909-0.0909 (   153 PWs)   bands (ev):

    -2.9573  18.1381  20.4817  20.4823  23.2922  23.5784

          k =-0.1818 0.1818-0.1818 (   153 PWs)   bands (ev):

    -2.2542  14.4200  19.7276  19.7278  23.1030  24.4684

          k =-0.2727 0.2727-0.2727 (   150 PWs)   bands (ev):

    -1.0935  10.9355  19.3117  19.3118  22.9149  22.9229

          k =-0.3636 0.3636-0.3636 (   147 PWs)   bands (ev):

     0.5089   7.7726  19.2695  19.2695  21.4415  21.4416

          k =-0.4545 0.4545-0.4545 (   147 PWs)   bands (ev):

     2.5314   4.9691  19.6058  19.6059  20.3326  20.3330

          k = 0.0000 0.1818 0.0000 (   153 PWs)   bands (ev):

    -2.8789  19.1872  19.1872  19.4604  21.9239  25.0143

          k =-0.0909 0.2727-0.0909 (   153 PWs)   bands (ev):

    -2.3320  15.7605  18.2456  19.6142  22.2581  22.9824

          k =-0.1818 0.3636-0.1818 (   147 PWs)   bands (ev):

    -1.3243  12.2276  17.6844  19.2818  20.6152  24.4216

          k =-0.2727 0.4545-0.2727 (   148 PWs)   bands (ev):

     0.1298   8.9695  17.5050  18.8944  19.2322  23.9942

          k =-0.3636 0.5455-0.3636 (   149 PWs)   bands (ev):

     2.0111   6.0520  17.6724  17.7085  19.4314  22.7724

          k = 0.5455-0.3636 0.5455 (   150 PWs)   bands (ev):

     3.4798   4.3231  16.8049  18.2980  20.0662  21.9228

          k = 0.4545-0.2727 0.4545 (   149 PWs)   bands (ev):

     1.3380   6.9824  16.3362  19.2739  21.0940  21.4602

          k = 0.3636-0.1818 0.3636 (   149 PWs)   bands (ev):

    -0.4035  10.0125  16.2727  20.6017  21.4089  22.4921

          k = 0.2727-0.0909 0.2727 (   151 PWs)   bands (ev):

    -1.7107  13.3455  16.6305  21.5426  22.4023  24.0858

          k = 0.1818-0.0000 0.1818 (   157 PWs)   bands (ev):

    -2.5660  16.5975  17.6956  21.7789  22.8329  23.9596

          k = 0.0000 0.3636 0.0000 (   153 PWs)   bands (ev):

    -1.9431  17.1572  17.1572  17.1845  20.1780  20.6276

          k =-0.0909 0.4545-0.0909 (   147 PWs)   bands (ev):

    -1.0929  13.8327  16.4590  17.6989  18.0893  21.1425

          k =-0.1818 0.5455-0.1818 (   147 PWs)   bands (ev):

     0.2059  10.5458  16.1081  16.1462  17.8475  23.2683

          k =-0.2727 0.6364-0.2727 (   149 PWs)   bands (ev):

     1.9355   7.5446  14.6894  16.2174  18.0071  25.6169

          k = 0.6364-0.2727 0.6364 (   153 PWs)   bands (ev):

     4.0545   4.9106  13.6720  16.6732  18.5462  24.6521

          k = 0.5455-0.1818 0.5455 (   147 PWs)   bands (ev):

     2.6049   6.6065  13.0774  17.5181  19.4867  24.0633

          k = 0.4545-0.0909 0.4545 (   148 PWs)   bands (ev):

     0.7358   9.4393  12.9522  18.7498  20.8090  23.8441

          k = 0.3636 0.0000 0.3636 (   144 PWs)   bands (ev):

    -0.7094  12.1297  13.7255  20.3584  22.4617  23.6045

          k = 0.0000 0.5455 0.0000 (   149 PWs)   bands (ev):

    -0.4030  15.3809  15.5670  15.6277  15.6277  19.3045

          k =-0.0909 0.6364-0.0909 (   145 PWs)   bands (ev):

     0.7357  12.4159  13.5931  15.1858  16.4377  19.9778

          k =-0.1818 0.7273-0.1818 (   145 PWs)   bands (ev):

     2.3055   9.4036  12.0081  15.1266  16.7178  22.3508

          k = 0.7273-0.1818 0.7273 (   150 PWs)   bands (ev):

     4.2738   6.6842  10.8394  15.4504  17.1817  25.3249

          k = 0.6364-0.0909 0.6364 (   148 PWs)   bands (ev):

     4.2872   6.6149  10.1476  16.1604  18.0214  27.0807

          k = 0.5455 0.0000 0.5455 (   146 PWs)   bands (ev):

     2.3079   8.7771  10.4093  17.2596  19.2476  26.9029

          k = 0.0000 0.7273 0.0000 (   145 PWs)   bands (ev):

     1.7103  11.4014  14.1600  14.6138  14.6138  18.2974

          k =-0.0909 0.8182-0.0909 (   146 PWs)   bands (ev):

     3.1100   9.6381  11.6258  14.4257  15.5705  19.2255

          k = 0.8182-0.0909 0.8182 (   142 PWs)   bands (ev):

     4.8823   8.2484   9.0043  14.6199  16.1344  21.8692

          k = 0.7273 0.0000 0.7273 (   142 PWs)   bands (ev):

     6.3359   6.5607   8.1077  15.1968  16.8964  25.1228

          k = 0.0000 0.9091 0.0000 (   150 PWs)   bands (ev):

     4.3094   7.7791  13.5460  14.1073  14.1073  17.7586

          k = 0.9091-0.0000 0.9091 (   148 PWs)   bands (ev):

     5.4584   6.7884  11.3356  14.1721  15.2799  18.9660

          k =-0.1818 0.3636 0.0000 (   149 PWs)   bands (ev):

    -1.6331  14.3711  15.7264  20.3966  20.4835  22.3538

          k =-0.2727 0.4545-0.0909 (   148 PWs)   bands (ev):

    -0.4797  11.3983  14.8081  18.4896  20.7442  23.8325

          k =-0.3636 0.5455-0.1818 (   147 PWs)   bands (ev):

     1.1125   8.3156  14.6789  16.9561  20.8142  23.1353

          k = 0.5455-0.3636 0.7273 (   150 PWs)   bands (ev):

     3.1197   5.5445  14.9571  15.8559  21.1638  22.0569

          k =-0.1818 0.5455 0.0000 (   146 PWs)   bands (ev):

    -0.0980  12.6897  14.1141  15.9310  18.8851  21.1051

          k =-0.2727 0.6364-0.0909 (   146 PWs)   bands (ev):

     1.3375   9.9898  13.3486  14.3102  19.4836  22.9178

          k = 0.6364-0.2727 0.8182 (   146 PWs)   bands (ev):

     3.1914   7.1734  12.7437  13.7573  19.8605  24.7682

          k = 0.5455-0.1818 0.7273 (   147 PWs)   bands (ev):

     4.6311   5.4783  11.9379  14.2822  20.5277  24.0627

          k = 0.4545-0.0909 0.6364 (   146 PWs)   bands (ev):

     2.5301   8.0274  11.5503  15.2831  21.5427  23.5244

          k = 0.3636 0.0000 0.5455 (   146 PWs)   bands (ev):

     0.8113  10.4492  12.0835  16.6950  22.7877  22.8252

          k =-0.1818 0.7273 0.0000 (   145 PWs)   bands (ev):

     2.0084  11.5652  11.6157  13.2164  17.7842  20.1725

          k = 0.7273-0.1818 0.9091 (   148 PWs)   bands (ev):

     3.6950   9.1053  10.2627  12.7333  18.6770  22.2428

          k = 0.6364-0.0909 0.8182 (   145 PWs)   bands (ev):

     5.7181   6.6055   9.2817  13.1286  19.3399  25.2422

          k = 0.5455 0.0000 0.7273 (   148 PWs)   bands (ev):

     4.3589   7.6657   9.2419  13.9962  20.2816  26.2078

          k = 0.8182-0.0909 1.0000 (   146 PWs)   bands (ev):

     4.5967   8.0609  11.0029  12.6207  17.2310  19.6770

          k = 0.7273 0.0000 0.9091 (   141 PWs)   bands (ev):

     6.0096   7.3505   8.9327  12.4391  18.4043  22.0084

          k = 0.6364-0.2727 1.0000 (   149 PWs)   bands (ev):

     2.8971   9.3318  10.8765  12.7150  21.7350  23.2776

          k = 0.5455-0.1818 0.9091 (   150 PWs)   bands (ev):

     4.8520   7.1767  10.5427  11.6444  22.6842  23.6419

          k = 0.6364-0.0909 1.0000 (   149 PWs)   bands (ev):

     5.4517   8.7745   8.8289  10.6244  21.1895  22.9676

          k = 0.5455 0.0000 0.9091 (   149 PWs)   bands (ev):

     6.8444   7.1117   8.5783  10.6086  22.4847  25.3457

     the Fermi energy is     8.3132 ev

!    total energy              =      -4.18960456 Ry
     Harris-Foulkes estimate   =      -4.18960445 Ry
     estimated scf accuracy    <       0.00000030 Ry

     The total energy is the sum of the following terms:

     one-electron contribution =       2.93696640 Ry
     hartree contribution      =       0.00979038 Ry
     xc contribution           =      -1.63470060 Ry
     ewald contribution        =      -5.50183451 Ry
     smearing contrib. (-TS)   =       0.00017377 Ry

     convergence has been achieved in   3 iterations

     Forces acting on atoms (Ry/au):

     atom    1 type  1   force =     0.00000000    0.00000000    0.00000000

     Total force =     0.000000     Total SCF correction =     0.000000


     entering subroutine stress ...

          total   stress  (Ry/bohr**3)                   (kbar)     P=   -8.69
  -0.00005905   0.00000000   0.00000000         -8.69      0.00      0.00
   0.00000000  -0.00005905  -0.00000000          0.00     -8.69     -0.00
   0.00000000  -0.00000000  -0.00005905          0.00     -0.00     -8.69


     Writing output data file aluminium.save

     init_run     :      0.05s CPU      0.05s WALL (       1 calls)
     electrons    :      0.45s CPU      0.47s WALL (       1 calls)
     forces       :      0.01s CPU      0.01s WALL (       1 calls)
     stress       :      0.04s CPU      0.04s WALL (       1 calls)

     Called by init_run:
     wfcinit      :      0.04s CPU      0.04s WALL (       1 calls)
     potinit      :      0.00s CPU      0.00s WALL (       1 calls)

     Called by electrons:
     c_bands      :      0.39s CPU      0.41s WALL (       4 calls)
     sum_band     :      0.06s CPU      0.06s WALL (       4 calls)
     v_of_rho     :      0.00s CPU      0.00s WALL (       4 calls)
     mix_rho      :      0.00s CPU      0.00s WALL (       4 calls)

     Called by c_bands:
     init_us_2    :      0.02s CPU      0.02s WALL (     616 calls)
     cegterg      :      0.37s CPU      0.39s WALL (     224 calls)

     Called by sum_band:

     Called by *egterg:
     h_psi        :      0.23s CPU      0.28s WALL (     757 calls)
     g_psi        :      0.01s CPU      0.00s WALL (     477 calls)
     cdiaghg      :      0.06s CPU      0.06s WALL (     645 calls)

     Called by h_psi:
     h_psi:pot    :      0.22s CPU      0.28s WALL (     757 calls)
     h_psi:calbec :      0.02s CPU      0.01s WALL (     757 calls)
     vloc_psi     :      0.19s CPU      0.26s WALL (     757 calls)
     add_vuspsi   :      0.01s CPU      0.01s WALL (     757 calls)

     General routines
     calbec       :      0.02s CPU      0.01s WALL (    1037 calls)
     fft          :      0.00s CPU      0.00s WALL (      22 calls)
     fftw         :      0.20s CPU      0.24s WALL (    8924 calls)
     davcio       :      0.00s CPU      0.00s WALL (      56 calls)

     Parallel routines
     fft_scatter  :      0.02s CPU      0.04s WALL (    8946 calls)

     PWSCF        :     0.69s CPU         0.75s WALL


   This run was terminated on:  16:25:28  16Apr2018            

=------------------------------------------------------------------------------=
   JOB DONE.
=------------------------------------------------------------------------------=
