
     Program PWSCF v.6.0 (svn rev. 13079) starts on 16Apr2018 at 16:28:22 

     This program is part of the open-source Quantum ESPRESSO suite
     for quantum simulation of materials; please cite
         "P. Giannozzi et al., J. Phys.:Condens. Matter 21 395502 (2009);
          URL http://www.quantum-espresso.org", 
     in publications or presentations arising from this work. More details at
     http://www.quantum-espresso.org/quote

     Parallel version (MPI), running on     1 processors
     Waiting for input...
     Reading input from standard input
     Message from routine read_cards :
     DEPRECATED: no units specified in ATOMIC_POSITIONS card
     Message from routine read_cards :
     ATOMIC_POSITIONS: units set to alat

     Current dimensions of program PWSCF are:
     Max number of different atomic species (ntypx) = 10
     Max number of k-points (npk) =  40000
     Max angular momentum in pseudopotentials (lmaxx) =  3

     Subspace diagonalization in iterative solution of the eigenvalue problem:
     a serial algorithm will be used


     G-vector sticks info
     --------------------
     sticks:   dense  smooth     PW     G-vecs:    dense   smooth      PW
     Sum         151     151     61                 1243     1243     331



     bravais-lattice index     =            2
     lattice parameter (alat)  =       7.5000  a.u.
     unit-cell volume          =     105.4688 (a.u.)^3
     number of atoms/cell      =            1
     number of atomic types    =            1
     number of electrons       =         3.00
     number of Kohn-Sham states=            6
     kinetic-energy cutoff     =      20.0000  Ry
     charge density cutoff     =      80.0000  Ry
     convergence threshold     =      1.0E-06
     mixing beta               =       0.7000
     number of iterations used =            8  plain     mixing
     Exchange-correlation      =  SLA  PZ   NOGX NOGC ( 1  1  0  0 0 0)

     celldm(1)=   7.500000  celldm(2)=   0.000000  celldm(3)=   0.000000
     celldm(4)=   0.000000  celldm(5)=   0.000000  celldm(6)=   0.000000

     crystal axes: (cart. coord. in units of alat)
               a(1) = (  -0.500000   0.000000   0.500000 )  
               a(2) = (   0.000000   0.500000   0.500000 )  
               a(3) = (  -0.500000   0.500000   0.000000 )  

     reciprocal axes: (cart. coord. in units 2 pi/alat)
               b(1) = ( -1.000000 -1.000000  1.000000 )  
               b(2) = (  1.000000  1.000000  1.000000 )  
               b(3) = ( -1.000000  1.000000 -1.000000 )  


     PseudoPot. # 1 for Al read from file:
     ../../../PP/Al.pz-vbc.UPF
     MD5 check sum: f06ceae8da0fe5c02c98e3688433298c
     Pseudo is Norm-conserving, Zval =  3.0
     Generated by new atomic code, or converted to UPF format
     Using radial grid of  171 points,  2 beta functions with: 
                l(1) =   0
                l(2) =   1

     atomic species   valence    mass     pseudopotential
        Al             3.00    26.98000     Al( 1.00)

     48 Sym. Ops., with inversion, found



   Cartesian axes

     site n.     atom                  positions (alat units)
         1           Al  tau(   1) = (   0.0000000   0.0000000   0.0000000  )

     number of k points=    47  Marzari-Vanderbilt smearing, width (Ry)=  0.0500
                       cart. coord. in units 2pi/alat
        k(    1) = (   0.0000000   0.0000000   0.0000000), wk =   0.0020000
        k(    2) = (  -0.1000000   0.1000000  -0.1000000), wk =   0.0160000
        k(    3) = (  -0.2000000   0.2000000  -0.2000000), wk =   0.0160000
        k(    4) = (  -0.3000000   0.3000000  -0.3000000), wk =   0.0160000
        k(    5) = (  -0.4000000   0.4000000  -0.4000000), wk =   0.0160000
        k(    6) = (   0.5000000  -0.5000000   0.5000000), wk =   0.0080000
        k(    7) = (   0.0000000   0.2000000   0.0000000), wk =   0.0120000
        k(    8) = (  -0.1000000   0.3000000  -0.1000000), wk =   0.0480000
        k(    9) = (  -0.2000000   0.4000000  -0.2000000), wk =   0.0480000
        k(   10) = (  -0.3000000   0.5000000  -0.3000000), wk =   0.0480000
        k(   11) = (   0.6000000  -0.4000000   0.6000000), wk =   0.0480000
        k(   12) = (   0.5000000  -0.3000000   0.5000000), wk =   0.0480000
        k(   13) = (   0.4000000  -0.2000000   0.4000000), wk =   0.0480000
        k(   14) = (   0.3000000  -0.1000000   0.3000000), wk =   0.0480000
        k(   15) = (   0.2000000   0.0000000   0.2000000), wk =   0.0240000
        k(   16) = (   0.0000000   0.4000000   0.0000000), wk =   0.0120000
        k(   17) = (  -0.1000000   0.5000000  -0.1000000), wk =   0.0480000
        k(   18) = (  -0.2000000   0.6000000  -0.2000000), wk =   0.0480000
        k(   19) = (   0.7000000  -0.3000000   0.7000000), wk =   0.0480000
        k(   20) = (   0.6000000  -0.2000000   0.6000000), wk =   0.0480000
        k(   21) = (   0.5000000  -0.1000000   0.5000000), wk =   0.0480000
        k(   22) = (   0.4000000   0.0000000   0.4000000), wk =   0.0240000
        k(   23) = (   0.0000000   0.6000000   0.0000000), wk =   0.0120000
        k(   24) = (  -0.1000000   0.7000000  -0.1000000), wk =   0.0480000
        k(   25) = (   0.8000000  -0.2000000   0.8000000), wk =   0.0480000
        k(   26) = (   0.7000000  -0.1000000   0.7000000), wk =   0.0480000
        k(   27) = (   0.6000000  -0.0000000   0.6000000), wk =   0.0240000
        k(   28) = (   0.0000000   0.8000000   0.0000000), wk =   0.0120000
        k(   29) = (   0.9000000  -0.1000000   0.9000000), wk =   0.0480000
        k(   30) = (   0.8000000   0.0000000   0.8000000), wk =   0.0240000
        k(   31) = (   0.0000000  -1.0000000   0.0000000), wk =   0.0060000
        k(   32) = (  -0.2000000   0.4000000   0.0000000), wk =   0.0480000
        k(   33) = (  -0.3000000   0.5000000  -0.1000000), wk =   0.0960000
        k(   34) = (   0.6000000  -0.4000000   0.8000000), wk =   0.0960000
        k(   35) = (   0.5000000  -0.3000000   0.7000000), wk =   0.0480000
        k(   36) = (  -0.2000000   0.6000000   0.0000000), wk =   0.0480000
        k(   37) = (   0.7000000  -0.3000000   0.9000000), wk =   0.0960000
        k(   38) = (   0.6000000  -0.2000000   0.8000000), wk =   0.0960000
        k(   39) = (   0.5000000  -0.1000000   0.7000000), wk =   0.0960000
        k(   40) = (   0.4000000   0.0000000   0.6000000), wk =   0.0480000
        k(   41) = (   0.8000000  -0.2000000   1.0000000), wk =   0.0480000
        k(   42) = (   0.7000000  -0.1000000   0.9000000), wk =   0.0960000
        k(   43) = (   0.6000000   0.0000000   0.8000000), wk =   0.0480000
        k(   44) = (  -0.2000000  -1.0000000   0.0000000), wk =   0.0240000
        k(   45) = (   0.6000000  -0.2000000   1.0000000), wk =   0.0480000
        k(   46) = (   0.5000000  -0.1000000   0.9000000), wk =   0.0480000
        k(   47) = (  -0.4000000  -1.0000000   0.0000000), wk =   0.0240000

     Dense  grid:     1243 G-vectors     FFT dimensions: (  15,  15,  15)

     Estimated max dynamical RAM per process >       1.51Mb

     Initial potential from superposition of free atoms

     starting charge    2.99794, renormalised to    3.00000
     Starting wfc are    4 randomized atomic wfcs +    2 random wfc

     total cpu time spent up to now is        0.1 secs

     per-process dynamical memory:     5.3 Mb

     Self-consistent Calculation

     iteration #  1     ecut=    20.00 Ry     beta=0.70
     Davidson diagonalization with overlap
     ethr =  1.00E-02,  avg # of iterations =  4.5

     Threshold (ethr) on eigenvalues was too large:
     Diagonalizing with lowered threshold

     Davidson diagonalization with overlap
     ethr =  1.92E-04,  avg # of iterations =  1.4

     total cpu time spent up to now is        0.3 secs

     total energy              =      -4.18894413 Ry
     Harris-Foulkes estimate   =      -4.18972817 Ry
     estimated scf accuracy    <       0.00575366 Ry

     iteration #  2     ecut=    20.00 Ry     beta=0.70
     Davidson diagonalization with overlap
     ethr =  1.92E-04,  avg # of iterations =  1.0

     total cpu time spent up to now is        0.4 secs

     total energy              =      -4.18894637 Ry
     Harris-Foulkes estimate   =      -4.18897008 Ry
     estimated scf accuracy    <       0.00044341 Ry

     iteration #  3     ecut=    20.00 Ry     beta=0.70
     Davidson diagonalization with overlap
     ethr =  1.48E-05,  avg # of iterations =  1.5

     total cpu time spent up to now is        0.5 secs

     End of self-consistent calculation

          k = 0.0000 0.0000 0.0000 (   169 PWs)   bands (ev):

    -3.1932  21.1677  21.1677  22.5359  22.5359  22.5359

          k =-0.1000 0.1000-0.1000 (   168 PWs)   bands (ev):

    -2.9083  17.7603  20.3913  20.3918  23.2864  23.7298

          k =-0.2000 0.2000-0.2000 (   159 PWs)   bands (ev):

    -2.0586  13.6990  19.6136  19.6136  23.0525  24.2205

          k =-0.3000 0.3000-0.3000 (   153 PWs)   bands (ev):

    -0.6588   9.9499  19.2583  19.2583  22.4375  22.4376

          k =-0.4000 0.4000-0.4000 (   162 PWs)   bands (ev):

     1.2674   6.6045  19.3556  19.3556  20.9498  20.9498

          k = 0.5000-0.5000 0.5000 (   156 PWs)   bands (ev):

     3.5858   3.8139  19.8823  19.8823  19.9567  19.9568

          k = 0.0000 0.2000 0.0000 (   165 PWs)   bands (ev):

    -2.8134  18.9598  18.9598  19.2205  21.8088  24.6001

          k =-0.1000 0.3000-0.1000 (   158 PWs)   bands (ev):

    -2.1525  15.1840  17.9720  19.4027  21.8533  22.7038

          k =-0.2000 0.4000-0.2000 (   157 PWs)   bands (ev):

    -0.9371  11.3619  17.4437  19.0736  19.8207  24.7018

          k =-0.3000 0.5000-0.3000 (   156 PWs)   bands (ev):

     0.8127   7.8959  17.3790  18.0813  19.1164  23.7337

          k = 0.6000-0.4000 0.6000 (   160 PWs)   bands (ev):

     3.0652   4.8584  16.8755  17.7795  19.5590  22.5589

          k = 0.5000-0.3000 0.5000 (   160 PWs)   bands (ev):

     2.2617   5.8178  16.1464  18.6474  20.4877  21.8430

          k = 0.4000-0.2000 0.4000 (   154 PWs)   bands (ev):

     0.1718   9.0003  15.9080  19.9758  21.6011  21.8810

          k = 0.3000-0.1000 0.3000 (   159 PWs)   bands (ev):

    -1.4028  12.5686  16.1795  21.5220  22.0042  23.6821

          k = 0.2000 0.0000 0.2000 (   159 PWs)   bands (ev):

    -2.4353  16.1026  17.2834  21.9064  22.8414  24.0806

          k = 0.0000 0.4000 0.0000 (   161 PWs)   bands (ev):

    -1.6830  16.7789  16.8072  16.8072  19.2258  20.3469

          k =-0.1000 0.5000-0.1000 (   158 PWs)   bands (ev):

    -0.6584  13.1740  16.1166  16.8077  17.5695  21.0501

          k =-0.2000 0.6000-0.2000 (   154 PWs)   bands (ev):

     0.9039   9.6579  14.9471  15.8925  17.5982  23.5706

          k = 0.7000-0.3000 0.7000 (   159 PWs)   bands (ev):

     2.9754   6.5090  13.5466  16.1327  17.9402  25.6960

          k = 0.6000-0.2000 0.6000 (   162 PWs)   bands (ev):

     3.7728   5.5482  12.6499  16.8390  18.7538  24.8329

          k = 0.5000-0.1000 0.5000 (   158 PWs)   bands (ev):

     1.5399   8.5013  12.3087  18.0161  20.0442  24.4250

          k = 0.4000 0.0000 0.4000 (   154 PWs)   bands (ev):

    -0.1963  11.3646  12.9960  19.6597  21.7607  24.1108

          k = 0.0000 0.6000 0.0000 (   153 PWs)   bands (ev):

     0.1721  14.2664  14.9508  15.2681  15.2681  18.9597

          k =-0.1000 0.7000-0.1000 (   160 PWs)   bands (ev):

     1.5385  11.7359  12.2644  14.8847  16.1612  19.8970

          k = 0.8000-0.2000 0.8000 (   158 PWs)   bands (ev):

     3.4130   8.6070  10.6239  14.9672  16.5666  22.7372

          k = 0.7000-0.1000 0.7000 (   161 PWs)   bands (ev):

     5.6049   5.9315   9.5748  15.5122  17.2735  26.1871

          k = 0.6000-0.0000 0.6000 (   162 PWs)   bands (ev):

     3.4221   7.9904   9.5952  16.5266  18.4424  27.7973

          k = 0.0000 0.8000 0.0000 (   162 PWs)   bands (ev):

     2.7015   9.8747  13.8400  14.3474  14.3474  18.0192

          k = 0.9000-0.1000 0.9000 (   162 PWs)   bands (ev):

     4.3461   8.1090  11.1695  14.2729  15.4575  19.2836

          k = 0.8000 0.0000 0.8000 (   170 PWs)   bands (ev):

     5.9829   7.2871   8.4125  14.6577  16.2127  22.4464

          k = 0.0000-1.0000 0.0000 (   150 PWs)   bands (ev):

     5.3204   6.6398  13.4682  14.0437  14.0437  17.6898

          k =-0.2000 0.4000 0.0000 (   162 PWs)   bands (ev):

    -1.3093  13.7381  15.1629  19.5330  20.4885  22.3460

          k =-0.3000 0.5000-0.1000 (   156 PWs)   bands (ev):

     0.0799  10.5410  14.2611  17.5246  20.8348  23.9060

          k = 0.6000-0.4000 0.8000 (   158 PWs)   bands (ev):

     1.9915   7.2783  14.2700  15.9931  21.0347  22.7820

          k = 0.5000-0.3000 0.7000 (   166 PWs)   bands (ev):

     4.2611   4.5474  14.6055  15.1554  21.4402  21.9350

          k =-0.2000 0.6000 0.0000 (   160 PWs)   bands (ev):

     0.5384  12.0418  13.4727  14.7500  18.8653  21.0735

          k = 0.7000-0.3000 0.9000 (   156 PWs)   bands (ev):

     2.2598   9.1712  12.5792  13.3047  19.6092  23.2603

          k = 0.6000-0.2000 0.8000 (   162 PWs)   bands (ev):

     4.4646   6.2425  11.5892  13.4069  20.1762  24.8688

          k = 0.5000-0.1000 0.7000 (   162 PWs)   bands (ev):

     3.6855   7.1297  10.9332  14.2737  21.1174  24.1684

          k = 0.4000 0.0000 0.6000 (   156 PWs)   bands (ev):

     1.6303   9.6740  11.3083  15.6618  22.4406  23.2686

          k = 0.8000-0.2000 1.0000 (   158 PWs)   bands (ev):

     3.0582  10.1825  11.0230  12.6896  17.8650  20.2158

          k = 0.7000-0.1000 0.9000 (   160 PWs)   bands (ev):

     5.0391   8.3568   8.9712  12.3663  18.9592  22.7274

          k = 0.6000 0.0000 0.8000 (   163 PWs)   bands (ev):

     5.8501   6.9847   8.5308  13.0443  19.8654  26.1555

          k =-0.2000-1.0000 0.0000 (   164 PWs)   bands (ev):

     5.6509   6.9980  10.6828  12.3325  17.5294  19.9156

          k = 0.6000-0.2000 1.0000 (   156 PWs)   bands (ev):

     4.1189   8.6627  10.1243  11.5211  22.3087  23.6527

          k = 0.5000-0.1000 0.9000 (   158 PWs)   bands (ev):

     6.2726   6.5764   9.8455  10.7582  23.2715  23.8252

          k =-0.4000-1.0000 0.0000 (   158 PWs)   bands (ev):

     6.6510   7.9841   8.3256  10.1672  21.9784  23.5970

     the Fermi energy is     8.3869 ev

!    total energy              =      -4.18894954 Ry
     Harris-Foulkes estimate   =      -4.18894942 Ry
     estimated scf accuracy    <       0.00000033 Ry

     The total energy is the sum of the following terms:

     one-electron contribution =       2.93933276 Ry
     hartree contribution      =       0.00967500 Ry
     xc contribution           =      -1.63461516 Ry
     ewald contribution        =      -5.50183460 Ry
     smearing contrib. (-TS)   =      -0.00150754 Ry

     convergence has been achieved in   3 iterations

     Forces acting on atoms (Ry/au):

     atom    1 type  1   force =     0.00000000    0.00000000    0.00000000

     Total force =     0.000000     Total SCF correction =     0.000000


     entering subroutine stress ...

          total   stress  (Ry/bohr**3)                   (kbar)     P=   -7.85
  -0.00005334  -0.00000000  -0.00000000         -7.85     -0.00     -0.00
  -0.00000000  -0.00005334   0.00000000         -0.00     -7.85      0.00
  -0.00000000   0.00000000  -0.00005334         -0.00      0.00     -7.85


     Writing output data file aluminium.save

     init_run     :      0.04s CPU      0.05s WALL (       1 calls)
     electrons    :      0.39s CPU      0.42s WALL (       1 calls)
     forces       :      0.00s CPU      0.01s WALL (       1 calls)
     stress       :      0.04s CPU      0.04s WALL (       1 calls)

     Called by init_run:
     wfcinit      :      0.03s CPU      0.03s WALL (       1 calls)
     potinit      :      0.00s CPU      0.00s WALL (       1 calls)

     Called by electrons:
     c_bands      :      0.34s CPU      0.37s WALL (       4 calls)
     sum_band     :      0.05s CPU      0.05s WALL (       4 calls)
     v_of_rho     :      0.00s CPU      0.00s WALL (       4 calls)
     mix_rho      :      0.00s CPU      0.00s WALL (       4 calls)

     Called by c_bands:
     init_us_2    :      0.02s CPU      0.02s WALL (     517 calls)
     cegterg      :      0.33s CPU      0.35s WALL (     188 calls)

     Called by sum_band:

     Called by *egterg:
     h_psi        :      0.24s CPU      0.24s WALL (     631 calls)
     g_psi        :      0.01s CPU      0.00s WALL (     396 calls)
     cdiaghg      :      0.04s CPU      0.06s WALL (     537 calls)

     Called by h_psi:
     h_psi:pot    :      0.23s CPU      0.23s WALL (     631 calls)
     h_psi:calbec :      0.00s CPU      0.01s WALL (     631 calls)
     vloc_psi     :      0.22s CPU      0.22s WALL (     631 calls)
     add_vuspsi   :      0.01s CPU      0.01s WALL (     631 calls)

     General routines
     calbec       :      0.00s CPU      0.01s WALL (     866 calls)
     fft          :      0.00s CPU      0.00s WALL (      22 calls)
     fftw         :      0.23s CPU      0.20s WALL (    7494 calls)
     davcio       :      0.00s CPU      0.00s WALL (      47 calls)

     Parallel routines
     fft_scatter  :      0.02s CPU      0.03s WALL (    7516 calls)

     PWSCF        :     0.60s CPU         0.66s WALL


   This run was terminated on:  16:28:23  16Apr2018            

=------------------------------------------------------------------------------=
   JOB DONE.
=------------------------------------------------------------------------------=
