
     Program PWSCF v.6.0 (svn rev. 13079) starts on 16Apr2018 at 16:25:30 

     This program is part of the open-source Quantum ESPRESSO suite
     for quantum simulation of materials; please cite
         "P. Giannozzi et al., J. Phys.:Condens. Matter 21 395502 (2009);
          URL http://www.quantum-espresso.org", 
     in publications or presentations arising from this work. More details at
     http://www.quantum-espresso.org/quote

     Parallel version (MPI), running on     1 processors
     Waiting for input...
     Reading input from standard input
     Message from routine read_cards :
     DEPRECATED: no units specified in ATOMIC_POSITIONS card
     Message from routine read_cards :
     ATOMIC_POSITIONS: units set to alat

     Current dimensions of program PWSCF are:
     Max number of different atomic species (ntypx) = 10
     Max number of k-points (npk) =  40000
     Max angular momentum in pseudopotentials (lmaxx) =  3

     Subspace diagonalization in iterative solution of the eigenvalue problem:
     a serial algorithm will be used


     G-vector sticks info
     --------------------
     sticks:   dense  smooth     PW     G-vecs:    dense   smooth      PW
     Sum         139     139     55                 1067     1067     283



     bravais-lattice index     =            2
     lattice parameter (alat)  =       7.5000  a.u.
     unit-cell volume          =     105.4688 (a.u.)^3
     number of atoms/cell      =            1
     number of atomic types    =            1
     number of electrons       =         3.00
     number of Kohn-Sham states=            6
     kinetic-energy cutoff     =      18.0000  Ry
     charge density cutoff     =      72.0000  Ry
     convergence threshold     =      1.0E-06
     mixing beta               =       0.7000
     number of iterations used =            8  plain     mixing
     Exchange-correlation      =  SLA  PZ   NOGX NOGC ( 1  1  0  0 0 0)

     celldm(1)=   7.500000  celldm(2)=   0.000000  celldm(3)=   0.000000
     celldm(4)=   0.000000  celldm(5)=   0.000000  celldm(6)=   0.000000

     crystal axes: (cart. coord. in units of alat)
               a(1) = (  -0.500000   0.000000   0.500000 )  
               a(2) = (   0.000000   0.500000   0.500000 )  
               a(3) = (  -0.500000   0.500000   0.000000 )  

     reciprocal axes: (cart. coord. in units 2 pi/alat)
               b(1) = ( -1.000000 -1.000000  1.000000 )  
               b(2) = (  1.000000  1.000000  1.000000 )  
               b(3) = ( -1.000000  1.000000 -1.000000 )  


     PseudoPot. # 1 for Al read from file:
     ../../../PP/Al.pz-vbc.UPF
     MD5 check sum: f06ceae8da0fe5c02c98e3688433298c
     Pseudo is Norm-conserving, Zval =  3.0
     Generated by new atomic code, or converted to UPF format
     Using radial grid of  171 points,  2 beta functions with: 
                l(1) =   0
                l(2) =   1

     atomic species   valence    mass     pseudopotential
        Al             3.00    26.98000     Al( 1.00)

     48 Sym. Ops., with inversion, found



   Cartesian axes

     site n.     atom                  positions (alat units)
         1           Al  tau(   1) = (   0.0000000   0.0000000   0.0000000  )

     number of k points=    72  Marzari-Vanderbilt smearing, width (Ry)=  0.0500
                       cart. coord. in units 2pi/alat
        k(    1) = (   0.0000000   0.0000000   0.0000000), wk =   0.0011574
        k(    2) = (  -0.0833333   0.0833333  -0.0833333), wk =   0.0092593
        k(    3) = (  -0.1666667   0.1666667  -0.1666667), wk =   0.0092593
        k(    4) = (  -0.2500000   0.2500000  -0.2500000), wk =   0.0092593
        k(    5) = (  -0.3333333   0.3333333  -0.3333333), wk =   0.0092593
        k(    6) = (  -0.4166667   0.4166667  -0.4166667), wk =   0.0092593
        k(    7) = (   0.5000000  -0.5000000   0.5000000), wk =   0.0046296
        k(    8) = (   0.0000000   0.1666667   0.0000000), wk =   0.0069444
        k(    9) = (  -0.0833333   0.2500000  -0.0833333), wk =   0.0277778
        k(   10) = (  -0.1666667   0.3333333  -0.1666667), wk =   0.0277778
        k(   11) = (  -0.2500000   0.4166667  -0.2500000), wk =   0.0277778
        k(   12) = (  -0.3333333   0.5000000  -0.3333333), wk =   0.0277778
        k(   13) = (   0.5833333  -0.4166667   0.5833333), wk =   0.0277778
        k(   14) = (   0.5000000  -0.3333333   0.5000000), wk =   0.0277778
        k(   15) = (   0.4166667  -0.2500000   0.4166667), wk =   0.0277778
        k(   16) = (   0.3333333  -0.1666667   0.3333333), wk =   0.0277778
        k(   17) = (   0.2500000  -0.0833333   0.2500000), wk =   0.0277778
        k(   18) = (   0.1666667  -0.0000000   0.1666667), wk =   0.0138889
        k(   19) = (   0.0000000   0.3333333   0.0000000), wk =   0.0069444
        k(   20) = (  -0.0833333   0.4166667  -0.0833333), wk =   0.0277778
        k(   21) = (  -0.1666667   0.5000000  -0.1666667), wk =   0.0277778
        k(   22) = (  -0.2500000   0.5833333  -0.2500000), wk =   0.0277778
        k(   23) = (   0.6666667  -0.3333333   0.6666667), wk =   0.0277778
        k(   24) = (   0.5833333  -0.2500000   0.5833333), wk =   0.0277778
        k(   25) = (   0.5000000  -0.1666667   0.5000000), wk =   0.0277778
        k(   26) = (   0.4166667  -0.0833333   0.4166667), wk =   0.0277778
        k(   27) = (   0.3333333   0.0000000   0.3333333), wk =   0.0138889
        k(   28) = (   0.0000000   0.5000000   0.0000000), wk =   0.0069444
        k(   29) = (  -0.0833333   0.5833333  -0.0833333), wk =   0.0277778
        k(   30) = (  -0.1666667   0.6666667  -0.1666667), wk =   0.0277778
        k(   31) = (   0.7500000  -0.2500000   0.7500000), wk =   0.0277778
        k(   32) = (   0.6666667  -0.1666667   0.6666667), wk =   0.0277778
        k(   33) = (   0.5833333  -0.0833333   0.5833333), wk =   0.0277778
        k(   34) = (   0.5000000   0.0000000   0.5000000), wk =   0.0138889
        k(   35) = (   0.0000000   0.6666667   0.0000000), wk =   0.0069444
        k(   36) = (  -0.0833333   0.7500000  -0.0833333), wk =   0.0277778
        k(   37) = (   0.8333333  -0.1666667   0.8333333), wk =   0.0277778
        k(   38) = (   0.7500000  -0.0833333   0.7500000), wk =   0.0277778
        k(   39) = (   0.6666667  -0.0000000   0.6666667), wk =   0.0138889
        k(   40) = (   0.0000000   0.8333333   0.0000000), wk =   0.0069444
        k(   41) = (   0.9166667  -0.0833333   0.9166667), wk =   0.0277778
        k(   42) = (   0.8333333   0.0000000   0.8333333), wk =   0.0138889
        k(   43) = (   0.0000000  -1.0000000   0.0000000), wk =   0.0034722
        k(   44) = (  -0.1666667   0.3333333   0.0000000), wk =   0.0277778
        k(   45) = (  -0.2500000   0.4166667  -0.0833333), wk =   0.0555556
        k(   46) = (  -0.3333333   0.5000000  -0.1666667), wk =   0.0555556
        k(   47) = (   0.5833333  -0.4166667   0.7500000), wk =   0.0555556
        k(   48) = (   0.5000000  -0.3333333   0.6666667), wk =   0.0277778
        k(   49) = (  -0.1666667   0.5000000   0.0000000), wk =   0.0277778
        k(   50) = (  -0.2500000   0.5833333  -0.0833333), wk =   0.0555556
        k(   51) = (   0.6666667  -0.3333333   0.8333333), wk =   0.0555556
        k(   52) = (   0.5833333  -0.2500000   0.7500000), wk =   0.0555556
        k(   53) = (   0.5000000  -0.1666667   0.6666667), wk =   0.0555556
        k(   54) = (   0.4166667  -0.0833333   0.5833333), wk =   0.0555556
        k(   55) = (   0.3333333   0.0000000   0.5000000), wk =   0.0277778
        k(   56) = (  -0.1666667   0.6666667  -0.0000000), wk =   0.0277778
        k(   57) = (   0.7500000  -0.2500000   0.9166667), wk =   0.0555556
        k(   58) = (   0.6666667  -0.1666667   0.8333333), wk =   0.0555556
        k(   59) = (   0.5833333  -0.0833333   0.7500000), wk =   0.0555556
        k(   60) = (   0.5000000   0.0000000   0.6666667), wk =   0.0277778
        k(   61) = (   0.8333333  -0.1666667   1.0000000), wk =   0.0277778
        k(   62) = (   0.7500000  -0.0833333   0.9166667), wk =   0.0555556
        k(   63) = (   0.6666667   0.0000000   0.8333333), wk =   0.0277778
        k(   64) = (  -0.1666667  -1.0000000  -0.0000000), wk =   0.0138889
        k(   65) = (   0.6666667  -0.3333333   1.0000000), wk =   0.0277778
        k(   66) = (   0.5833333  -0.2500000   0.9166667), wk =   0.0555556
        k(   67) = (   0.5000000  -0.1666667   0.8333333), wk =   0.0277778
        k(   68) = (   0.6666667  -0.1666667   1.0000000), wk =   0.0277778
        k(   69) = (   0.5833333  -0.0833333   0.9166667), wk =   0.0555556
        k(   70) = (   0.5000000   0.0000000   0.8333333), wk =   0.0277778
        k(   71) = (  -0.3333333  -1.0000000   0.0000000), wk =   0.0138889
        k(   72) = (  -0.5000000  -1.0000000   0.0000000), wk =   0.0069444

     Dense  grid:     1067 G-vectors     FFT dimensions: (  15,  15,  15)

     Estimated max dynamical RAM per process >       1.64Mb

     Initial potential from superposition of free atoms

     starting charge    2.99794, renormalised to    3.00000
     Starting wfc are    4 randomized atomic wfcs +    2 random wfc

     total cpu time spent up to now is        0.1 secs

     per-process dynamical memory:     5.5 Mb

     Self-consistent Calculation

     iteration #  1     ecut=    18.00 Ry     beta=0.70
     Davidson diagonalization with overlap
     ethr =  1.00E-02,  avg # of iterations =  4.3

     Threshold (ethr) on eigenvalues was too large:
     Diagonalizing with lowered threshold

     Davidson diagonalization with overlap
     ethr =  1.93E-04,  avg # of iterations =  1.2

     total cpu time spent up to now is        0.4 secs

     total energy              =      -4.18881840 Ry
     Harris-Foulkes estimate   =      -4.18959184 Ry
     estimated scf accuracy    <       0.00579658 Ry

     iteration #  2     ecut=    18.00 Ry     beta=0.70
     Davidson diagonalization with overlap
     ethr =  1.93E-04,  avg # of iterations =  1.1

     total cpu time spent up to now is        0.6 secs

     total energy              =      -4.18881772 Ry
     Harris-Foulkes estimate   =      -4.18884273 Ry
     estimated scf accuracy    <       0.00044991 Ry

     iteration #  3     ecut=    18.00 Ry     beta=0.70
     Davidson diagonalization with overlap
     ethr =  1.50E-05,  avg # of iterations =  1.4

     total cpu time spent up to now is        0.7 secs

     End of self-consistent calculation

          k = 0.0000 0.0000 0.0000 (   137 PWs)   bands (ev):

    -3.1925  21.1705  21.1707  22.5474  22.5474  22.5474

          k =-0.0833 0.0833-0.0833 (   138 PWs)   bands (ev):

    -2.9946  18.4529  20.5576  20.5579  23.2877  23.4574

          k =-0.1667 0.1667-0.1667 (   144 PWs)   bands (ev):

    -2.4031  15.0304  19.8334  19.8334  23.1455  24.5628

          k =-0.2500 0.2500-0.2500 (   138 PWs)   bands (ev):

    -1.4252  11.7801  19.3853  19.3853  22.9494  23.3315

          k =-0.3333 0.3333-0.3333 (   144 PWs)   bands (ev):

    -0.0726   8.7893  19.2427  19.2427  21.8957  21.8960

          k =-0.4167 0.4167-0.4167 (   144 PWs)   bands (ev):

     1.6400   6.0922  19.4199  19.4199  20.7484  20.7484

          k = 0.5000-0.5000 0.5000 (   138 PWs)   bands (ev):

     3.5913   3.8150  19.8864  19.8864  19.9573  19.9573

          k = 0.0000 0.1667 0.0000 (   141 PWs)   bands (ev):

    -2.9287  19.3778  19.3778  19.6607  22.0149  24.7317

          k =-0.0833 0.2500-0.0833 (   141 PWs)   bands (ev):

    -2.4685  16.2507  18.4863  19.7917  22.3754  23.4481

          k =-0.1667 0.3333-0.1667 (   141 PWs)   bands (ev):

    -1.6199  12.9687  17.9100  19.4608  21.2932  24.2150

          k =-0.2500 0.4167-0.2500 (   143 PWs)   bands (ev):

    -0.3930   9.9034  17.6523  19.2479  19.7228  24.2470

          k =-0.3333 0.5000-0.3333 (   138 PWs)   bands (ev):

     1.1992   7.1153  17.7173  18.3990  19.3914  23.0162

          k = 0.5833-0.4167 0.5833 (   135 PWs)   bands (ev):

     3.1355   4.6358  17.4519  18.1042  19.8108  22.0875

          k = 0.5000-0.3333 0.5000 (   138 PWs)   bands (ev):

     2.4544   5.4241  16.8335  18.8181  20.5646  21.4804

          k = 0.4167-0.2500 0.4167 (   140 PWs)   bands (ev):

     0.6288   8.0097  16.5518  19.8512  21.2026  21.6422

          k = 0.3333-0.1667 0.3333 (   143 PWs)   bands (ev):

    -0.8433  10.8882  16.6079  21.0216  21.4188  23.0147

          k = 0.2500-0.0833 0.2500 (   143 PWs)   bands (ev):

    -1.9455  14.0087  17.0195  21.4726  22.8153  24.0423

          k = 0.1667-0.0000 0.1667 (   139 PWs)   bands (ev):

    -2.6654  17.0185  18.0431  21.6836  22.8124  23.8703

          k = 0.0000 0.3333 0.0000 (   141 PWs)   bands (ev):

    -2.1412  17.4649  17.4649  17.5379  20.8374  21.0095

          k =-0.0833 0.4167-0.0833 (   138 PWs)   bands (ev):

    -1.4249  14.4060  16.7720  18.0609  18.9413  21.2450

          k =-0.1667 0.5000-0.1667 (   140 PWs)   bands (ev):

    -0.3286  11.3280  16.4015  17.1035  18.1033  23.0594

          k =-0.2500 0.5833-0.2500 (   138 PWs)   bands (ev):

     1.1358   8.4750  15.7047  16.3560  18.1308  25.3315

          k = 0.6667-0.3333 0.6667 (   134 PWs)   bands (ev):

     2.9498   5.9079  14.6252  16.6329  18.4727  24.5977

          k = 0.5833-0.2500 0.5833 (   131 PWs)   bands (ev):

     3.6267   5.1207  13.8888  17.2351  19.1512  23.8874

          k = 0.5000-0.1667 0.5000 (   134 PWs)   bands (ev):

     1.7032   7.5686  13.5114  18.1625  20.1616  23.4961

          k = 0.4167-0.0833 0.4167 (   138 PWs)   bands (ev):

     0.1194  10.2709  13.5365  19.4131  21.4833  23.4071

          k = 0.3333 0.0000 0.3333 (   141 PWs)   bands (ev):

    -1.1015  12.8001  14.3545  20.9595  23.0629  23.2173

          k = 0.0000 0.5000 0.0000 (   133 PWs)   bands (ev):

    -0.8426  15.7798  15.9675  15.9675  16.6828  19.6141

          k =-0.0833 0.5833-0.0833 (   137 PWs)   bands (ev):

     0.1197  12.9928  14.7861  15.4862  16.7148  20.0975

          k =-0.1667 0.6667-0.1667 (   137 PWs)   bands (ev):

     1.4504  10.1376  13.2368  15.3299  16.9164  22.1006

          k = 0.7500-0.2500 0.7500 (   132 PWs)   bands (ev):

     3.1325   7.5138  12.0251  15.4964  17.2115  24.6893

          k = 0.6667-0.1667 0.6667 (   134 PWs)   bands (ev):

     4.9971   5.3189  11.1722  15.9854  17.8074  26.6390

          k = 0.5833-0.0833 0.5833 (   133 PWs)   bands (ev):

     3.1365   7.4297  10.7359  16.8002  18.7367  26.1487

          k = 0.5000 0.0000 0.5000 (   138 PWs)   bands (ev):

     1.4512   9.5090  11.1569  17.9431  19.9797  26.2225

          k = 0.0000 0.6667 0.0000 (   129 PWs)   bands (ev):

     0.9462  12.7386  14.5009  14.8996  14.8996  18.5870

          k =-0.0833 0.7500-0.0833 (   133 PWs)   bands (ev):

     2.1383  11.0091  12.1002  14.6329  15.7478  19.2675

          k = 0.8333-0.1667 0.8333 (   133 PWs)   bands (ev):

     3.6760   9.2792   9.8796  14.6891  16.1850  21.4946

          k = 0.7500-0.0833 0.7500 (   133 PWs)   bands (ev):

     5.4956   7.0099   8.8311  15.0681  16.7303  24.3251

          k = 0.6667-0.0000 0.6667 (   136 PWs)   bands (ev):

     4.9063   7.1755   8.7355  15.7700  17.5756  27.3648

          k = 0.0000 0.8333 0.0000 (   129 PWs)   bands (ev):

     3.1845   9.2096  13.7281  14.2615  14.2615  17.9214

          k = 0.9167-0.0833 0.9167 (   131 PWs)   bands (ev):

     4.5455   7.7667  11.6068  14.2083  15.2617  18.8349

          k = 0.8333 0.0000 0.8333 (   134 PWs)   bands (ev):

     5.7858   7.1225   9.2602  14.4764  15.9370  21.2879

          k = 0.0000-1.0000 0.0000 (   126 PWs)   bands (ev):

     5.3264   6.6402  13.4699  14.0504  14.0504  17.6917

          k =-0.1667 0.3333 0.0000 (   137 PWs)   bands (ev):

    -1.8801  14.9202  16.2051  20.4983  21.1115  22.3944

          k =-0.2500 0.4167-0.0833 (   139 PWs)   bands (ev):

    -0.9076  12.1456  15.2930  19.3221  20.6993  23.6777

          k =-0.3333 0.5000-0.1667 (   139 PWs)   bands (ev):

     0.4382   9.2340  15.0682  17.8146  20.6795  23.4760

          k = 0.5833-0.4167 0.7500 (   137 PWs)   bands (ev):

     2.1418   6.5677  15.2081  16.6459  20.8925  22.3525

          k = 0.5000-0.3333 0.6667 (   134 PWs)   bands (ev):

     4.0609   4.3268  15.5232  15.9886  21.2455  21.6840

          k =-0.1667 0.5000 0.0000 (   139 PWs)   bands (ev):

    -0.5853  13.2723  14.6577  16.9701  18.9430  21.1669

          k =-0.2500 0.5833-0.0833 (   137 PWs)   bands (ev):

     0.6289  10.7307  13.8967  15.3536  19.4367  22.6878

          k = 0.6667-0.3333 0.8333 (   137 PWs)   bands (ev):

     2.2031   8.0396  13.6512  14.2755  19.6804  24.6524

          k = 0.5833-0.2500 0.7500 (   135 PWs)   bands (ev):

     4.1099   5.6071  12.9160  14.4193  20.1462  24.0482

          k = 0.5000-0.1667 0.6667 (   133 PWs)   bands (ev):

     3.4437   6.3691  12.3334  15.1264  20.9094  23.4283

          k = 0.4167-0.0833 0.5833 (   136 PWs)   bands (ev):

     1.6400   8.8517  12.1410  16.1957  21.9495  23.0658

          k = 0.3333 0.0000 0.5000 (   138 PWs)   bands (ev):

     0.1833  11.1526  12.7725  17.6019  22.4393  23.1239

          k =-0.1667 0.6667-0.0000 (   132 PWs)   bands (ev):

     1.1987  12.0923  12.8341  13.7602  17.7910  20.2026

          k = 0.7500-0.2500 0.9167 (   134 PWs)   bands (ev):

     2.6364   9.7669  11.5012  13.1450  18.5341  21.9289

          k = 0.6667-0.1667 0.8333 (   133 PWs)   bands (ev):

     4.4069   7.3143  10.4422  13.3288  19.0214  24.5392

          k = 0.5833-0.0833 0.7500 (   133 PWs)   bands (ev):

     5.0797   6.4862   9.7670  13.9316  19.7242  26.1291

          k = 0.5000 0.0000 0.6667 (   134 PWs)   bands (ev):

     3.1975   8.3399   9.9475  14.8946  20.7164  25.3267

          k = 0.8333-0.1667 1.0000 (   130 PWs)   bands (ev):

     3.4308   9.4344  11.3827  12.9656  17.0938  19.5831

          k = 0.7500-0.0833 0.9167 (   132 PWs)   bands (ev):

     5.0244   8.2098   9.3828  12.6430  18.0733  21.5298

          k = 0.6667 0.0000 0.8333 (   132 PWs)   bands (ev):

     6.4807   6.9717   8.0548  13.0877  18.7960  24.3797

          k =-0.1667-1.0000-0.0000 (   130 PWs)   bands (ev):

     5.5559   6.8900  11.1463  12.7292  16.8615  19.3703

          k = 0.6667-0.3333 1.0000 (   138 PWs)   bands (ev):

     1.9530   9.9773  11.5554  13.8189  21.3417  22.9954

          k = 0.5833-0.2500 0.9167 (   136 PWs)   bands (ev):

     3.6248   7.8995  11.1168  12.6496  22.1625  23.6443

          k = 0.5000-0.1667 0.8333 (   140 PWs)   bands (ev):

     5.4634   5.7972  11.2756  12.0776  22.5379  23.1459

          k = 0.6667-0.1667 1.0000 (   135 PWs)   bands (ev):

     4.1645   9.2734   9.9735  11.2044  20.6543  22.5262

          k = 0.5833-0.0833 0.9167 (   134 PWs)   bands (ev):

     5.9716   7.4089   9.1996  10.9122  21.7519  24.6323

          k = 0.5000 0.0000 0.8333 (   134 PWs)   bands (ev):

     5.3730   7.6411   9.1592  11.5441  22.5843  24.6819

          k =-0.3333-1.0000 0.0000 (   136 PWs)   bands (ev):

     6.2480   7.6076   9.0387  10.8203  20.4227  22.3479

          k =-0.5000-1.0000 0.0000 (   144 PWs)   bands (ev):

     7.4067   7.4067   8.3666   9.6306  24.4556  24.8576

     the Fermi energy is     8.2206 ev

!    total energy              =      -4.18882068 Ry
     Harris-Foulkes estimate   =      -4.18882058 Ry
     estimated scf accuracy    <       0.00000030 Ry

     The total energy is the sum of the following terms:

     one-electron contribution =       2.93749227 Ry
     hartree contribution      =       0.00986367 Ry
     xc contribution           =      -1.63473272 Ry
     ewald contribution        =      -5.50183451 Ry
     smearing contrib. (-TS)   =       0.00039062 Ry

     convergence has been achieved in   3 iterations

     Forces acting on atoms (Ry/au):

     atom    1 type  1   force =     0.00000000    0.00000000    0.00000000

     Total force =     0.000000     Total SCF correction =     0.000000


     entering subroutine stress ...

          total   stress  (Ry/bohr**3)                   (kbar)     P=   -9.96
  -0.00006772   0.00000000   0.00000000         -9.96      0.00      0.00
   0.00000000  -0.00006772  -0.00000000          0.00     -9.96     -0.00
   0.00000000  -0.00000000  -0.00006772          0.00     -0.00     -9.96


     Writing output data file aluminium.save

     init_run     :      0.06s CPU      0.06s WALL (       1 calls)
     electrons    :      0.55s CPU      0.60s WALL (       1 calls)
     forces       :      0.00s CPU      0.01s WALL (       1 calls)
     stress       :      0.04s CPU      0.04s WALL (       1 calls)

     Called by init_run:
     wfcinit      :      0.05s CPU      0.05s WALL (       1 calls)
     potinit      :      0.00s CPU      0.00s WALL (       1 calls)

     Called by electrons:
     c_bands      :      0.48s CPU      0.52s WALL (       4 calls)
     sum_band     :      0.06s CPU      0.07s WALL (       4 calls)
     v_of_rho     :      0.00s CPU      0.00s WALL (       4 calls)
     mix_rho      :      0.00s CPU      0.00s WALL (       4 calls)

     Called by c_bands:
     init_us_2    :      0.01s CPU      0.03s WALL (     792 calls)
     cegterg      :      0.45s CPU      0.50s WALL (     288 calls)

     Called by sum_band:

     Called by *egterg:
     h_psi        :      0.32s CPU      0.37s WALL (     937 calls)
     g_psi        :      0.01s CPU      0.00s WALL (     577 calls)
     cdiaghg      :      0.06s CPU      0.07s WALL (     793 calls)

     Called by h_psi:
     h_psi:pot    :      0.32s CPU      0.36s WALL (     937 calls)
     h_psi:calbec :      0.00s CPU      0.01s WALL (     937 calls)
     vloc_psi     :      0.31s CPU      0.34s WALL (     937 calls)
     add_vuspsi   :      0.00s CPU      0.01s WALL (     937 calls)

     General routines
     calbec       :      0.01s CPU      0.01s WALL (    1297 calls)
     fft          :      0.00s CPU      0.00s WALL (      22 calls)
     fftw         :      0.32s CPU      0.31s WALL (   11394 calls)
     davcio       :      0.00s CPU      0.00s WALL (      72 calls)

     Parallel routines
     fft_scatter  :      0.06s CPU      0.05s WALL (   11416 calls)

     PWSCF        :     0.82s CPU         0.88s WALL


   This run was terminated on:  16:25:31  16Apr2018            

=------------------------------------------------------------------------------=
   JOB DONE.
=------------------------------------------------------------------------------=
