
     Program PWSCF v.6.0 (svn rev. 13079) starts on 16Apr2018 at 16: 0:24 

     This program is part of the open-source Quantum ESPRESSO suite
     for quantum simulation of materials; please cite
         "P. Giannozzi et al., J. Phys.:Condens. Matter 21 395502 (2009);
          URL http://www.quantum-espresso.org", 
     in publications or presentations arising from this work. More details at
     http://www.quantum-espresso.org/quote

     Parallel version (MPI), running on     1 processors
     Waiting for input...
     Reading input from standard input

     Current dimensions of program PWSCF are:
     Max number of different atomic species (ntypx) = 10
     Max number of k-points (npk) =  40000
     Max angular momentum in pseudopotentials (lmaxx) =  3

     Subspace diagonalization in iterative solution of the eigenvalue problem:
     a serial algorithm will be used


     G-vector sticks info
     --------------------
     sticks:   dense  smooth     PW     G-vecs:    dense   smooth      PW
     Sum         301     301     97                 3479     3479     645



     bravais-lattice index     =            2
     lattice parameter (alat)  =      10.2000  a.u.
     unit-cell volume          =     265.3020 (a.u.)^3
     number of atoms/cell      =            2
     number of atomic types    =            1
     number of electrons       =         8.00
     number of Kohn-Sham states=            4
     kinetic-energy cutoff     =      20.8700  Ry
     charge density cutoff     =      83.4800  Ry
     convergence threshold     =      1.0E-08
     mixing beta               =       0.7000
     number of iterations used =            8  plain     mixing
     Exchange-correlation      =  SLA  PZ   NOGX NOGC ( 1  1  0  0 0 0)

     celldm(1)=  10.200000  celldm(2)=   0.000000  celldm(3)=   0.000000
     celldm(4)=   0.000000  celldm(5)=   0.000000  celldm(6)=   0.000000

     crystal axes: (cart. coord. in units of alat)
               a(1) = (  -0.500000   0.000000   0.500000 )  
               a(2) = (   0.000000   0.500000   0.500000 )  
               a(3) = (  -0.500000   0.500000   0.000000 )  

     reciprocal axes: (cart. coord. in units 2 pi/alat)
               b(1) = ( -1.000000 -1.000000  1.000000 )  
               b(2) = (  1.000000  1.000000  1.000000 )  
               b(3) = ( -1.000000  1.000000 -1.000000 )  


     PseudoPot. # 1 for Si read from file:
     ../../../PP/Si.pz-vbc.UPF
     MD5 check sum: 6dfa03ddd5817404712e03e4d12deb78
     Pseudo is Norm-conserving, Zval =  4.0
     Generated by new atomic code, or converted to UPF format
     Using radial grid of  431 points,  2 beta functions with: 
                l(1) =   0
                l(2) =   1

     atomic species   valence    mass     pseudopotential
        Si             4.00    28.08600     Si( 1.00)

     48 Sym. Ops., with inversion, found (24 have fractional translation)



   Cartesian axes

     site n.     atom                  positions (alat units)
         1           Si  tau(   1) = (   0.0000000   0.0000000   0.0000000  )
         2           Si  tau(   2) = (  -0.2500000   0.2500000   0.2500000  )

     number of k points=    10
                       cart. coord. in units 2pi/alat
        k(    1) = (   0.0000000   0.0000000   0.0000000), wk =   0.0160000
        k(    2) = (  -0.2000000   0.2000000  -0.2000000), wk =   0.1280000
        k(    3) = (  -0.4000000   0.4000000  -0.4000000), wk =   0.1280000
        k(    4) = (   0.0000000   0.4000000   0.0000000), wk =   0.0960000
        k(    5) = (  -0.2000000   0.6000000  -0.2000000), wk =   0.3840000
        k(    6) = (   0.6000000  -0.2000000   0.6000000), wk =   0.3840000
        k(    7) = (   0.4000000   0.0000000   0.4000000), wk =   0.1920000
        k(    8) = (   0.0000000   0.8000000   0.0000000), wk =   0.0960000
        k(    9) = (   0.8000000   0.0000000   0.8000000), wk =   0.1920000
        k(   10) = (   0.6000000  -0.2000000   1.0000000), wk =   0.3840000

     Dense  grid:     3479 G-vectors     FFT dimensions: (  24,  24,  24)

     Estimated max dynamical RAM per process >       2.79Mb

     Initial potential from superposition of free atoms

     starting charge    7.99901, renormalised to    8.00000
     Starting wfc are    8 randomized atomic wfcs

     total cpu time spent up to now is        0.1 secs

     per-process dynamical memory:     6.3 Mb

     Self-consistent Calculation

     iteration #  1     ecut=    20.87 Ry     beta=0.70
     Davidson diagonalization with overlap
     ethr =  1.00E-02,  avg # of iterations =  2.0

     Threshold (ethr) on eigenvalues was too large:
     Diagonalizing with lowered threshold

     Davidson diagonalization with overlap
     ethr =  8.12E-04,  avg # of iterations =  1.0

     total cpu time spent up to now is        0.3 secs

     total energy              =     -15.84019667 Ry
     Harris-Foulkes estimate   =     -15.86214965 Ry
     estimated scf accuracy    <       0.06404042 Ry

     iteration #  2     ecut=    20.87 Ry     beta=0.70
     Davidson diagonalization with overlap
     ethr =  8.01E-04,  avg # of iterations =  1.0

     total cpu time spent up to now is        0.3 secs

     total energy              =     -15.84335382 Ry
     Harris-Foulkes estimate   =     -15.84367574 Ry
     estimated scf accuracy    <       0.00224893 Ry

     iteration #  3     ecut=    20.87 Ry     beta=0.70
     Davidson diagonalization with overlap
     ethr =  2.81E-05,  avg # of iterations =  2.0

     total cpu time spent up to now is        0.3 secs

     total energy              =     -15.84374322 Ry
     Harris-Foulkes estimate   =     -15.84377223 Ry
     estimated scf accuracy    <       0.00006948 Ry

     iteration #  4     ecut=    20.87 Ry     beta=0.70
     Davidson diagonalization with overlap
     ethr =  8.69E-07,  avg # of iterations =  2.4

     total cpu time spent up to now is        0.4 secs

     total energy              =     -15.84376069 Ry
     Harris-Foulkes estimate   =     -15.84376346 Ry
     estimated scf accuracy    <       0.00000589 Ry

     iteration #  5     ecut=    20.87 Ry     beta=0.70
     Davidson diagonalization with overlap
     ethr =  7.37E-08,  avg # of iterations =  2.1

     total cpu time spent up to now is        0.4 secs

     total energy              =     -15.84376156 Ry
     Harris-Foulkes estimate   =     -15.84376160 Ry
     estimated scf accuracy    <       0.00000008 Ry

     iteration #  6     ecut=    20.87 Ry     beta=0.70
     Davidson diagonalization with overlap
     ethr =  1.02E-09,  avg # of iterations =  2.4

     total cpu time spent up to now is        0.5 secs

     End of self-consistent calculation

          k = 0.0000 0.0000 0.0000 (   411 PWs)   bands (ev):

    -5.8037   6.2642   6.2642   6.2642

          k =-0.2000 0.2000-0.2000 (   429 PWs)   bands (ev):

    -5.2790   3.2280   5.6697   5.6697

          k =-0.4000 0.4000-0.4000 (   422 PWs)   bands (ev):

    -3.8828  -0.0929   5.1128   5.1128

          k = 0.0000 0.4000 0.0000 (   423 PWs)   bands (ev):

    -5.0984   3.6632   4.7374   4.7374

          k =-0.2000 0.6000-0.2000 (   431 PWs)   bands (ev):

    -3.9350   0.9238   3.5827   4.2192

          k = 0.6000-0.2000 0.6000 (   424 PWs)   bands (ev):

    -3.0198  -0.5117   2.7548   4.5107

          k = 0.4000 0.0000 0.4000 (   429 PWs)   bands (ev):

    -4.4321   1.7729   3.1784   5.4005

          k = 0.0000 0.8000 0.0000 (   440 PWs)   bands (ev):

    -3.0480   0.0742   3.5046   3.5046

          k = 0.8000 0.0000 0.8000 (   432 PWs)   bands (ev):

    -1.8077  -1.2100   2.0777   3.6268

          k = 0.6000-0.2000 1.0000 (   422 PWs)   bands (ev):

    -2.5903  -0.3123   2.1693   3.1832

     highest occupied level (ev):     6.2642

!    total energy              =     -15.84376159 Ry
     Harris-Foulkes estimate   =     -15.84376159 Ry
     estimated scf accuracy    <          5.5E-10 Ry

     The total energy is the sum of the following terms:

     one-electron contribution =       4.78893836 Ry
     hartree contribution      =       1.08703326 Ry
     xc contribution           =      -4.81997461 Ry
     ewald contribution        =     -16.89975859 Ry

     convergence has been achieved in   6 iterations

     Forces acting on atoms (Ry/au):

     atom    1 type  1   force =     0.00000000    0.00000000    0.00000000
     atom    2 type  1   force =     0.00000000    0.00000000    0.00000000

     Total force =     0.000000     Total SCF correction =     0.000000


     entering subroutine stress ...

          total   stress  (Ry/bohr**3)                   (kbar)     P=   -1.89
  -0.00001286   0.00000000   0.00000000         -1.89      0.00      0.00
   0.00000000  -0.00001286  -0.00000000          0.00     -1.89     -0.00
   0.00000000  -0.00000000  -0.00001286          0.00     -0.00     -1.89


     Writing output data file silicon.save

     init_run     :      0.11s CPU      0.12s WALL (       1 calls)
     electrons    :      0.33s CPU      0.36s WALL (       1 calls)
     forces       :      0.00s CPU      0.01s WALL (       1 calls)
     stress       :      0.02s CPU      0.02s WALL (       1 calls)

     Called by init_run:
     wfcinit      :      0.06s CPU      0.06s WALL (       1 calls)
     potinit      :      0.01s CPU      0.01s WALL (       1 calls)

     Called by electrons:
     c_bands      :      0.26s CPU      0.27s WALL (       7 calls)
     sum_band     :      0.06s CPU      0.07s WALL (       7 calls)
     v_of_rho     :      0.01s CPU      0.01s WALL (       7 calls)
     mix_rho      :      0.00s CPU      0.00s WALL (       7 calls)

     Called by c_bands:
     init_us_2    :      0.00s CPU      0.01s WALL (     170 calls)
     cegterg      :      0.26s CPU      0.26s WALL (      70 calls)

     Called by sum_band:

     Called by *egterg:
     h_psi        :      0.28s CPU      0.29s WALL (     209 calls)
     g_psi        :      0.00s CPU      0.00s WALL (     129 calls)
     cdiaghg      :      0.01s CPU      0.01s WALL (     189 calls)

     Called by h_psi:
     h_psi:pot    :      0.28s CPU      0.29s WALL (     209 calls)
     h_psi:calbec :      0.00s CPU      0.01s WALL (     209 calls)
     vloc_psi     :      0.27s CPU      0.27s WALL (     209 calls)
     add_vuspsi   :      0.00s CPU      0.01s WALL (     209 calls)

     General routines
     calbec       :      0.00s CPU      0.01s WALL (     259 calls)
     fft          :      0.02s CPU      0.02s WALL (      34 calls)
     fftw         :      0.29s CPU      0.28s WALL (    1938 calls)
     davcio       :      0.00s CPU      0.02s WALL (      10 calls)

     Parallel routines
     fft_scatter  :      0.02s CPU      0.02s WALL (    1972 calls)

     PWSCF        :     0.56s CPU         0.65s WALL


   This run was terminated on:  16: 0:25  16Apr2018            

=------------------------------------------------------------------------------=
   JOB DONE.
=------------------------------------------------------------------------------=
