
     Program PWSCF v.6.0 (svn rev. 13079) starts on 22Jun2018 at 12:52:11 

     This program is part of the open-source Quantum ESPRESSO suite
     for quantum simulation of materials; please cite
         "P. Giannozzi et al., J. Phys.:Condens. Matter 21 395502 (2009);
          URL http://www.quantum-espresso.org", 
     in publications or presentations arising from this work. More details at
     http://www.quantum-espresso.org/quote

     Parallel version (MPI), running on     1 processors
     Waiting for input...
     Reading input from standard input

     Current dimensions of program PWSCF are:
     Max number of different atomic species (ntypx) = 10
     Max number of k-points (npk) =  40000
     Max angular momentum in pseudopotentials (lmaxx) =  3

     Subspace diagonalization in iterative solution of the eigenvalue problem:
     a serial algorithm will be used


     G-vector sticks info
     --------------------
     sticks:   dense  smooth     PW     G-vecs:    dense   smooth      PW
     Sum         397     397    121                 5209     5209     941



     bravais-lattice index     =            2
     lattice parameter (alat)  =      10.2000  a.u.
     unit-cell volume          =     265.3020 (a.u.)^3
     number of atoms/cell      =            2
     number of atomic types    =            1
     number of electrons       =         8.00
     number of Kohn-Sham states=            4
     kinetic-energy cutoff     =      28.0420  Ry
     charge density cutoff     =     112.1680  Ry
     convergence threshold     =      1.0E-08
     mixing beta               =       0.7000
     number of iterations used =            8  plain     mixing
     Exchange-correlation      =  SLA  PZ   NOGX NOGC ( 1  1  0  0 0 0)

     celldm(1)=  10.200000  celldm(2)=   0.000000  celldm(3)=   0.000000
     celldm(4)=   0.000000  celldm(5)=   0.000000  celldm(6)=   0.000000

     crystal axes: (cart. coord. in units of alat)
               a(1) = (  -0.500000   0.000000   0.500000 )  
               a(2) = (   0.000000   0.500000   0.500000 )  
               a(3) = (  -0.500000   0.500000   0.000000 )  

     reciprocal axes: (cart. coord. in units 2 pi/alat)
               b(1) = ( -1.000000 -1.000000  1.000000 )  
               b(2) = (  1.000000  1.000000  1.000000 )  
               b(3) = ( -1.000000  1.000000 -1.000000 )  


     PseudoPot. # 1 for Si read from file:
     ../../../PP/Si.pz-vbc.UPF
     MD5 check sum: 6dfa03ddd5817404712e03e4d12deb78
     Pseudo is Norm-conserving, Zval =  4.0
     Generated by new atomic code, or converted to UPF format
     Using radial grid of  431 points,  2 beta functions with: 
                l(1) =   0
                l(2) =   1

     atomic species   valence    mass     pseudopotential
        Si             4.00    28.08600     Si( 1.00)

     24 Sym. Ops. (no inversion) found
          (note: 24 additional sym.ops. were found but ignored
           their fractional translations are incommensurate with FFT grid)


   Cartesian axes

     site n.     atom                  positions (alat units)
         1           Si  tau(   1) = (   0.0000000   0.0000000   0.0000000  )
         2           Si  tau(   2) = (  -0.2500000   0.2500000   0.2500000  )

     number of k points=    10
                       cart. coord. in units 2pi/alat
        k(    1) = (   0.0000000   0.0000000   0.0000000), wk =   0.0160000
        k(    2) = (  -0.2000000   0.2000000  -0.2000000), wk =   0.1280000
        k(    3) = (  -0.4000000   0.4000000  -0.4000000), wk =   0.1280000
        k(    4) = (   0.0000000   0.4000000   0.0000000), wk =   0.0960000
        k(    5) = (  -0.2000000   0.6000000  -0.2000000), wk =   0.3840000
        k(    6) = (   0.6000000  -0.2000000   0.6000000), wk =   0.3840000
        k(    7) = (   0.4000000   0.0000000   0.4000000), wk =   0.1920000
        k(    8) = (   0.0000000   0.8000000   0.0000000), wk =   0.0960000
        k(    9) = (   0.8000000   0.0000000   0.8000000), wk =   0.1920000
        k(   10) = (   0.6000000  -0.2000000   1.0000000), wk =   0.3840000

     Dense  grid:     5209 G-vectors     FFT dimensions: (  25,  25,  25)

     Estimated max dynamical RAM per process >       3.86Mb

     Initial potential from superposition of free atoms

     starting charge    7.99901, renormalised to    8.00000
     Starting wfc are    8 randomized atomic wfcs

     total cpu time spent up to now is        0.1 secs

     per-process dynamical memory:     6.7 Mb

     Self-consistent Calculation

     iteration #  1     ecut=    28.04 Ry     beta=0.70
     Davidson diagonalization with overlap
     ethr =  1.00E-02,  avg # of iterations =  2.0

     Threshold (ethr) on eigenvalues was too large:
     Diagonalizing with lowered threshold

     Davidson diagonalization with overlap
     ethr =  8.22E-04,  avg # of iterations =  1.0

     total cpu time spent up to now is        0.2 secs

     total energy              =     -15.84363495 Ry
     Harris-Foulkes estimate   =     -15.86558680 Ry
     estimated scf accuracy    <       0.06430812 Ry

     iteration #  2     ecut=    28.04 Ry     beta=0.70
     Davidson diagonalization with overlap
     ethr =  8.04E-04,  avg # of iterations =  1.0

     total cpu time spent up to now is        0.2 secs

     total energy              =     -15.84678716 Ry
     Harris-Foulkes estimate   =     -15.84710426 Ry
     estimated scf accuracy    <       0.00226029 Ry

     iteration #  3     ecut=    28.04 Ry     beta=0.70
     Davidson diagonalization with overlap
     ethr =  2.83E-05,  avg # of iterations =  2.1

     total cpu time spent up to now is        0.3 secs

     total energy              =     -15.84717750 Ry
     Harris-Foulkes estimate   =     -15.84720726 Ry
     estimated scf accuracy    <       0.00007242 Ry

     iteration #  4     ecut=    28.04 Ry     beta=0.70
     Davidson diagonalization with overlap
     ethr =  9.05E-07,  avg # of iterations =  2.2

     total cpu time spent up to now is        0.3 secs

     total energy              =     -15.84719479 Ry
     Harris-Foulkes estimate   =     -15.84719847 Ry
     estimated scf accuracy    <       0.00000771 Ry

     iteration #  5     ecut=    28.04 Ry     beta=0.70
     Davidson diagonalization with overlap
     ethr =  9.64E-08,  avg # of iterations =  2.1

     total cpu time spent up to now is        0.4 secs

     total energy              =     -15.84719602 Ry
     Harris-Foulkes estimate   =     -15.84719608 Ry
     estimated scf accuracy    <       0.00000013 Ry

     iteration #  6     ecut=    28.04 Ry     beta=0.70
     Davidson diagonalization with overlap
     ethr =  1.59E-09,  avg # of iterations =  2.4

     total cpu time spent up to now is        0.4 secs

     End of self-consistent calculation

          k = 0.0000 0.0000 0.0000 (   645 PWs)   bands (ev):

    -5.8081   6.2496   6.2496   6.2496

          k =-0.2000 0.2000-0.2000 (   655 PWs)   bands (ev):

    -5.2817   3.2221   5.6596   5.6596

          k =-0.4000 0.4000-0.4000 (   664 PWs)   bands (ev):

    -3.8861  -0.0958   5.1052   5.1052

          k = 0.0000 0.4000 0.0000 (   665 PWs)   bands (ev):

    -5.1011   3.6563   4.7291   4.7291

          k =-0.2000 0.6000-0.2000 (   662 PWs)   bands (ev):

    -3.9373   0.9204   3.5772   4.2133

          k = 0.6000-0.2000 0.6000 (   672 PWs)   bands (ev):

    -3.0229  -0.5148   2.7502   4.5038

          k = 0.4000 0.0000 0.4000 (   656 PWs)   bands (ev):

    -4.4345   1.7691   3.1735   5.3915

          k = 0.0000 0.8000 0.0000 (   664 PWs)   bands (ev):

    -3.0498   0.0718   3.5004   3.5004

          k = 0.8000 0.0000 0.8000 (   678 PWs)   bands (ev):

    -1.8095  -1.2128   2.0738   3.6223

          k = 0.6000-0.2000 1.0000 (   668 PWs)   bands (ev):

    -2.5934  -0.3159   2.1654   3.1784

     highest occupied level (ev):     6.2496

!    total energy              =     -15.84719606 Ry
     Harris-Foulkes estimate   =     -15.84719606 Ry
     estimated scf accuracy    <          5.4E-10 Ry

     The total energy is the sum of the following terms:

     one-electron contribution =       4.78547421 Ry
     hartree contribution      =       1.08810615 Ry
     xc contribution           =      -4.82101779 Ry
     ewald contribution        =     -16.89975863 Ry

     convergence has been achieved in   6 iterations

     Forces acting on atoms (Ry/au):

     atom    1 type  1   force =     0.00000000    0.00000000   -0.00000000
     atom    2 type  1   force =    -0.00000000   -0.00000000    0.00000000

     Total force =     0.000000     Total SCF correction =     0.000000


     entering subroutine stress ...

          total   stress  (Ry/bohr**3)                   (kbar)     P=    2.82
   0.00001920   0.00000000   0.00000000          2.82      0.00      0.00
   0.00000000   0.00001920   0.00000000          0.00      2.82      0.00
  -0.00000000  -0.00000000   0.00001920         -0.00     -0.00      2.82


     Writing output data file silicon.save

     init_run     :      0.10s CPU      0.10s WALL (       1 calls)
     electrons    :      0.26s CPU      0.28s WALL (       1 calls)
     forces       :      0.01s CPU      0.01s WALL (       1 calls)
     stress       :      0.03s CPU      0.03s WALL (       1 calls)

     Called by init_run:
     wfcinit      :      0.04s CPU      0.04s WALL (       1 calls)
     potinit      :      0.00s CPU      0.00s WALL (       1 calls)

     Called by electrons:
     c_bands      :      0.20s CPU      0.22s WALL (       7 calls)
     sum_band     :      0.03s CPU      0.04s WALL (       7 calls)
     v_of_rho     :      0.02s CPU      0.01s WALL (       7 calls)
     mix_rho      :      0.00s CPU      0.00s WALL (       7 calls)

     Called by c_bands:
     init_us_2    :      0.02s CPU      0.02s WALL (     170 calls)
     cegterg      :      0.19s CPU      0.21s WALL (      70 calls)

     Called by sum_band:

     Called by *egterg:
     h_psi        :      0.20s CPU      0.21s WALL (     208 calls)
     g_psi        :      0.00s CPU      0.00s WALL (     128 calls)
     cdiaghg      :      0.00s CPU      0.01s WALL (     188 calls)

     Called by h_psi:
     h_psi:pot    :      0.20s CPU      0.21s WALL (     208 calls)
     h_psi:calbec :      0.02s CPU      0.01s WALL (     208 calls)
     vloc_psi     :      0.16s CPU      0.19s WALL (     208 calls)
     add_vuspsi   :      0.01s CPU      0.01s WALL (     208 calls)

     General routines
     calbec       :      0.03s CPU      0.01s WALL (     258 calls)
     fft          :      0.02s CPU      0.01s WALL (      34 calls)
     fftw         :      0.14s CPU      0.19s WALL (    1946 calls)
     davcio       :      0.00s CPU      0.00s WALL (      10 calls)

     Parallel routines
     fft_scatter  :      0.01s CPU      0.03s WALL (    1980 calls)

     PWSCF        :     0.44s CPU         0.46s WALL


   This run was terminated on:  12:52:12  22Jun2018            

=------------------------------------------------------------------------------=
   JOB DONE.
=------------------------------------------------------------------------------=
