
     Program PWSCF v.6.0 (svn rev. 13079) starts on 22Jun2018 at 12:52:13 

     This program is part of the open-source Quantum ESPRESSO suite
     for quantum simulation of materials; please cite
         "P. Giannozzi et al., J. Phys.:Condens. Matter 21 395502 (2009);
          URL http://www.quantum-espresso.org", 
     in publications or presentations arising from this work. More details at
     http://www.quantum-espresso.org/quote

     Parallel version (MPI), running on     1 processors
     Waiting for input...
     Reading input from standard input

     Current dimensions of program PWSCF are:
     Max number of different atomic species (ntypx) = 10
     Max number of k-points (npk) =  40000
     Max angular momentum in pseudopotentials (lmaxx) =  3

     Subspace diagonalization in iterative solution of the eigenvalue problem:
     a serial algorithm will be used


     G-vector sticks info
     --------------------
     sticks:   dense  smooth     PW     G-vecs:    dense   smooth      PW
     Sum         439     439    151                 6231     6231    1139



     bravais-lattice index     =            2
     lattice parameter (alat)  =      10.2000  a.u.
     unit-cell volume          =     265.3020 (a.u.)^3
     number of atoms/cell      =            2
     number of atomic types    =            1
     number of electrons       =         8.00
     number of Kohn-Sham states=            4
     kinetic-energy cutoff     =      31.1250  Ry
     charge density cutoff     =     124.5000  Ry
     convergence threshold     =      1.0E-08
     mixing beta               =       0.7000
     number of iterations used =            8  plain     mixing
     Exchange-correlation      =  SLA  PZ   NOGX NOGC ( 1  1  0  0 0 0)

     celldm(1)=  10.200000  celldm(2)=   0.000000  celldm(3)=   0.000000
     celldm(4)=   0.000000  celldm(5)=   0.000000  celldm(6)=   0.000000

     crystal axes: (cart. coord. in units of alat)
               a(1) = (  -0.500000   0.000000   0.500000 )  
               a(2) = (   0.000000   0.500000   0.500000 )  
               a(3) = (  -0.500000   0.500000   0.000000 )  

     reciprocal axes: (cart. coord. in units 2 pi/alat)
               b(1) = ( -1.000000 -1.000000  1.000000 )  
               b(2) = (  1.000000  1.000000  1.000000 )  
               b(3) = ( -1.000000  1.000000 -1.000000 )  


     PseudoPot. # 1 for Si read from file:
     ../../../PP/Si.pz-vbc.UPF
     MD5 check sum: 6dfa03ddd5817404712e03e4d12deb78
     Pseudo is Norm-conserving, Zval =  4.0
     Generated by new atomic code, or converted to UPF format
     Using radial grid of  431 points,  2 beta functions with: 
                l(1) =   0
                l(2) =   1

     atomic species   valence    mass     pseudopotential
        Si             4.00    28.08600     Si( 1.00)

     24 Sym. Ops. (no inversion) found
          (note: 24 additional sym.ops. were found but ignored
           their fractional translations are incommensurate with FFT grid)


   Cartesian axes

     site n.     atom                  positions (alat units)
         1           Si  tau(   1) = (   0.0000000   0.0000000   0.0000000  )
         2           Si  tau(   2) = (  -0.2500000   0.2500000   0.2500000  )

     number of k points=    10
                       cart. coord. in units 2pi/alat
        k(    1) = (   0.0000000   0.0000000   0.0000000), wk =   0.0160000
        k(    2) = (  -0.2000000   0.2000000  -0.2000000), wk =   0.1280000
        k(    3) = (  -0.4000000   0.4000000  -0.4000000), wk =   0.1280000
        k(    4) = (   0.0000000   0.4000000   0.0000000), wk =   0.0960000
        k(    5) = (  -0.2000000   0.6000000  -0.2000000), wk =   0.3840000
        k(    6) = (   0.6000000  -0.2000000   0.6000000), wk =   0.3840000
        k(    7) = (   0.4000000   0.0000000   0.4000000), wk =   0.1920000
        k(    8) = (   0.0000000   0.8000000   0.0000000), wk =   0.0960000
        k(    9) = (   0.8000000   0.0000000   0.8000000), wk =   0.1920000
        k(   10) = (   0.6000000  -0.2000000   1.0000000), wk =   0.3840000

     Dense  grid:     6231 G-vectors     FFT dimensions: (  25,  25,  25)

     Estimated max dynamical RAM per process >       4.38Mb

     Initial potential from superposition of free atoms

     starting charge    7.99901, renormalised to    8.00000
     Starting wfc are    8 randomized atomic wfcs

     total cpu time spent up to now is        0.1 secs

     per-process dynamical memory:     7.0 Mb

     Self-consistent Calculation

     iteration #  1     ecut=    31.12 Ry     beta=0.70
     Davidson diagonalization with overlap
     ethr =  1.00E-02,  avg # of iterations =  2.0

     Threshold (ethr) on eigenvalues was too large:
     Diagonalizing with lowered threshold

     Davidson diagonalization with overlap
     ethr =  8.24E-04,  avg # of iterations =  1.0

     total cpu time spent up to now is        0.2 secs

     total energy              =     -15.84404507 Ry
     Harris-Foulkes estimate   =     -15.86603141 Ry
     estimated scf accuracy    <       0.06438482 Ry

     iteration #  2     ecut=    31.12 Ry     beta=0.70
     Davidson diagonalization with overlap
     ethr =  8.05E-04,  avg # of iterations =  1.0

     total cpu time spent up to now is        0.2 secs

     total energy              =     -15.84721661 Ry
     Harris-Foulkes estimate   =     -15.84753156 Ry
     estimated scf accuracy    <       0.00225239 Ry

     iteration #  3     ecut=    31.12 Ry     beta=0.70
     Davidson diagonalization with overlap
     ethr =  2.82E-05,  avg # of iterations =  2.1

     total cpu time spent up to now is        0.3 secs

     total energy              =     -15.84761279 Ry
     Harris-Foulkes estimate   =     -15.84764173 Ry
     estimated scf accuracy    <       0.00007156 Ry

     iteration #  4     ecut=    31.12 Ry     beta=0.70
     Davidson diagonalization with overlap
     ethr =  8.94E-07,  avg # of iterations =  2.4

     total cpu time spent up to now is        0.3 secs

     total energy              =     -15.84763266 Ry
     Harris-Foulkes estimate   =     -15.84763594 Ry
     estimated scf accuracy    <       0.00000692 Ry

     iteration #  5     ecut=    31.12 Ry     beta=0.70
     Davidson diagonalization with overlap
     ethr =  8.65E-08,  avg # of iterations =  2.0

     total cpu time spent up to now is        0.4 secs

     total energy              =     -15.84763372 Ry
     Harris-Foulkes estimate   =     -15.84763377 Ry
     estimated scf accuracy    <       0.00000011 Ry

     iteration #  6     ecut=    31.12 Ry     beta=0.70
     Davidson diagonalization with overlap
     ethr =  1.43E-09,  avg # of iterations =  2.4

     total cpu time spent up to now is        0.4 secs

     End of self-consistent calculation

          k = 0.0000 0.0000 0.0000 (   749 PWs)   bands (ev):

    -5.8080   6.2479   6.2479   6.2479

          k =-0.2000 0.2000-0.2000 (   794 PWs)   bands (ev):

    -5.2817   3.2212   5.6583   5.6583

          k =-0.4000 0.4000-0.4000 (   769 PWs)   bands (ev):

    -3.8861  -0.0961   5.1045   5.1045

          k = 0.0000 0.4000 0.0000 (   785 PWs)   bands (ev):

    -5.1011   3.6547   4.7285   4.7285

          k =-0.2000 0.6000-0.2000 (   775 PWs)   bands (ev):

    -3.9374   0.9197   3.5765   4.2127

          k = 0.6000-0.2000 0.6000 (   775 PWs)   bands (ev):

    -3.0229  -0.5151   2.7496   4.5032

          k = 0.4000 0.0000 0.4000 (   789 PWs)   bands (ev):

    -4.4345   1.7680   3.1728   5.3906

          k = 0.0000 0.8000 0.0000 (   773 PWs)   bands (ev):

    -3.0499   0.0711   3.5001   3.5001

          k = 0.8000 0.0000 0.8000 (   764 PWs)   bands (ev):

    -1.8096  -1.2130   2.0736   3.6219

          k = 0.6000-0.2000 1.0000 (   770 PWs)   bands (ev):

    -2.5935  -0.3164   2.1651   3.1779

     highest occupied level (ev):     6.2479

!    total energy              =     -15.84763375 Ry
     Harris-Foulkes estimate   =     -15.84763375 Ry
     estimated scf accuracy    <          5.1E-10 Ry

     The total energy is the sum of the following terms:

     one-electron contribution =       4.78494245 Ry
     hartree contribution      =       1.08824691 Ry
     xc contribution           =      -4.82106453 Ry
     ewald contribution        =     -16.89975859 Ry

     convergence has been achieved in   6 iterations

     Forces acting on atoms (Ry/au):

     atom    1 type  1   force =     0.00000000   -0.00000000    0.00000000
     atom    2 type  1   force =    -0.00000000    0.00000000   -0.00000000

     Total force =     0.000000     Total SCF correction =     0.000000


     entering subroutine stress ...

          total   stress  (Ry/bohr**3)                   (kbar)     P=    2.96
   0.00002013   0.00000000   0.00000000          2.96      0.00      0.00
   0.00000000   0.00002013  -0.00000000          0.00      2.96     -0.00
   0.00000000  -0.00000000   0.00002013          0.00     -0.00      2.96


     Writing output data file silicon.save

     init_run     :      0.09s CPU      0.10s WALL (       1 calls)
     electrons    :      0.27s CPU      0.29s WALL (       1 calls)
     forces       :      0.01s CPU      0.01s WALL (       1 calls)
     stress       :      0.04s CPU      0.04s WALL (       1 calls)

     Called by init_run:
     wfcinit      :      0.04s CPU      0.04s WALL (       1 calls)
     potinit      :      0.01s CPU      0.01s WALL (       1 calls)

     Called by electrons:
     c_bands      :      0.22s CPU      0.23s WALL (       7 calls)
     sum_band     :      0.05s CPU      0.05s WALL (       7 calls)
     v_of_rho     :      0.01s CPU      0.01s WALL (       7 calls)
     mix_rho      :      0.00s CPU      0.00s WALL (       7 calls)

     Called by c_bands:
     init_us_2    :      0.02s CPU      0.02s WALL (     170 calls)
     cegterg      :      0.21s CPU      0.22s WALL (      70 calls)

     Called by sum_band:

     Called by *egterg:
     h_psi        :      0.20s CPU      0.21s WALL (     209 calls)
     g_psi        :      0.00s CPU      0.00s WALL (     129 calls)
     cdiaghg      :      0.00s CPU      0.01s WALL (     189 calls)

     Called by h_psi:
     h_psi:pot    :      0.20s CPU      0.21s WALL (     209 calls)
     h_psi:calbec :      0.01s CPU      0.01s WALL (     209 calls)
     vloc_psi     :      0.18s CPU      0.19s WALL (     209 calls)
     add_vuspsi   :      0.02s CPU      0.01s WALL (     209 calls)

     General routines
     calbec       :      0.01s CPU      0.01s WALL (     259 calls)
     fft          :      0.01s CPU      0.01s WALL (      34 calls)
     fftw         :      0.18s CPU      0.19s WALL (    1946 calls)
     davcio       :      0.00s CPU      0.00s WALL (      10 calls)

     Parallel routines
     fft_scatter  :      0.04s CPU      0.03s WALL (    1980 calls)

     PWSCF        :     0.44s CPU         0.49s WALL


   This run was terminated on:  12:52:13  22Jun2018            

=------------------------------------------------------------------------------=
   JOB DONE.
=------------------------------------------------------------------------------=
