
     Program PWSCF v.6.0 (svn rev. 13079) starts on 22Jun2018 at 12:52: 5 

     This program is part of the open-source Quantum ESPRESSO suite
     for quantum simulation of materials; please cite
         "P. Giannozzi et al., J. Phys.:Condens. Matter 21 395502 (2009);
          URL http://www.quantum-espresso.org", 
     in publications or presentations arising from this work. More details at
     http://www.quantum-espresso.org/quote

     Parallel version (MPI), running on     1 processors
     Waiting for input...
     Reading input from standard input

     Current dimensions of program PWSCF are:
     Max number of different atomic species (ntypx) = 10
     Max number of k-points (npk) =  40000
     Max angular momentum in pseudopotentials (lmaxx) =  3

     Subspace diagonalization in iterative solution of the eigenvalue problem:
     a serial algorithm will be used


     G-vector sticks info
     --------------------
     sticks:   dense  smooth     PW     G-vecs:    dense   smooth      PW
     Sum         163     163     61                 1363     1363     307



     bravais-lattice index     =            2
     lattice parameter (alat)  =      10.2000  a.u.
     unit-cell volume          =     265.3020 (a.u.)^3
     number of atoms/cell      =            2
     number of atomic types    =            1
     number of electrons       =         8.00
     number of Kohn-Sham states=            4
     kinetic-energy cutoff     =      11.0830  Ry
     charge density cutoff     =      44.3320  Ry
     convergence threshold     =      1.0E-08
     mixing beta               =       0.7000
     number of iterations used =            8  plain     mixing
     Exchange-correlation      =  SLA  PZ   NOGX NOGC ( 1  1  0  0 0 0)

     celldm(1)=  10.200000  celldm(2)=   0.000000  celldm(3)=   0.000000
     celldm(4)=   0.000000  celldm(5)=   0.000000  celldm(6)=   0.000000

     crystal axes: (cart. coord. in units of alat)
               a(1) = (  -0.500000   0.000000   0.500000 )  
               a(2) = (   0.000000   0.500000   0.500000 )  
               a(3) = (  -0.500000   0.500000   0.000000 )  

     reciprocal axes: (cart. coord. in units 2 pi/alat)
               b(1) = ( -1.000000 -1.000000  1.000000 )  
               b(2) = (  1.000000  1.000000  1.000000 )  
               b(3) = ( -1.000000  1.000000 -1.000000 )  


     PseudoPot. # 1 for Si read from file:
     ../../../PP/Si.pz-vbc.UPF
     MD5 check sum: 6dfa03ddd5817404712e03e4d12deb78
     Pseudo is Norm-conserving, Zval =  4.0
     Generated by new atomic code, or converted to UPF format
     Using radial grid of  431 points,  2 beta functions with: 
                l(1) =   0
                l(2) =   1

     atomic species   valence    mass     pseudopotential
        Si             4.00    28.08600     Si( 1.00)

     24 Sym. Ops. (no inversion) found
          (note: 24 additional sym.ops. were found but ignored
           their fractional translations are incommensurate with FFT grid)


   Cartesian axes

     site n.     atom                  positions (alat units)
         1           Si  tau(   1) = (   0.0000000   0.0000000   0.0000000  )
         2           Si  tau(   2) = (  -0.2500000   0.2500000   0.2500000  )

     number of k points=    10
                       cart. coord. in units 2pi/alat
        k(    1) = (   0.0000000   0.0000000   0.0000000), wk =   0.0160000
        k(    2) = (  -0.2000000   0.2000000  -0.2000000), wk =   0.1280000
        k(    3) = (  -0.4000000   0.4000000  -0.4000000), wk =   0.1280000
        k(    4) = (   0.0000000   0.4000000   0.0000000), wk =   0.0960000
        k(    5) = (  -0.2000000   0.6000000  -0.2000000), wk =   0.3840000
        k(    6) = (   0.6000000  -0.2000000   0.6000000), wk =   0.3840000
        k(    7) = (   0.4000000   0.0000000   0.4000000), wk =   0.1920000
        k(    8) = (   0.0000000   0.8000000   0.0000000), wk =   0.0960000
        k(    9) = (   0.8000000   0.0000000   0.8000000), wk =   0.1920000
        k(   10) = (   0.6000000  -0.2000000   1.0000000), wk =   0.3840000

     Dense  grid:     1363 G-vectors     FFT dimensions: (  15,  15,  15)

     Estimated max dynamical RAM per process >       0.96Mb

     Initial potential from superposition of free atoms

     starting charge    7.99901, renormalised to    8.00000
     Starting wfc are    8 randomized atomic wfcs

     total cpu time spent up to now is        0.1 secs

     per-process dynamical memory:     4.7 Mb

     Self-consistent Calculation

     iteration #  1     ecut=    11.08 Ry     beta=0.70
     Davidson diagonalization with overlap
     ethr =  1.00E-02,  avg # of iterations =  2.0

     Threshold (ethr) on eigenvalues was too large:
     Diagonalizing with lowered threshold

     Davidson diagonalization with overlap
     ethr =  7.53E-04,  avg # of iterations =  1.0

     total cpu time spent up to now is        0.1 secs

     total energy              =     -15.78572452 Ry
     Harris-Foulkes estimate   =     -15.80536248 Ry
     estimated scf accuracy    <       0.06050074 Ry

     iteration #  2     ecut=    11.08 Ry     beta=0.70
     Davidson diagonalization with overlap
     ethr =  7.56E-04,  avg # of iterations =  1.0

     total cpu time spent up to now is        0.1 secs

     total energy              =     -15.78865124 Ry
     Harris-Foulkes estimate   =     -15.78893304 Ry
     estimated scf accuracy    <       0.00220906 Ry

     iteration #  3     ecut=    11.08 Ry     beta=0.70
     Davidson diagonalization with overlap
     ethr =  2.76E-05,  avg # of iterations =  2.0

     total cpu time spent up to now is        0.1 secs

     total energy              =     -15.78903317 Ry
     Harris-Foulkes estimate   =     -15.78905418 Ry
     estimated scf accuracy    <       0.00006028 Ry

     iteration #  4     ecut=    11.08 Ry     beta=0.70
     Davidson diagonalization with overlap
     ethr =  7.54E-07,  avg # of iterations =  2.2

     total cpu time spent up to now is        0.1 secs

     total energy              =     -15.78904598 Ry
     Harris-Foulkes estimate   =     -15.78904771 Ry
     estimated scf accuracy    <       0.00000432 Ry

     iteration #  5     ecut=    11.08 Ry     beta=0.70
     Davidson diagonalization with overlap
     ethr =  5.40E-08,  avg # of iterations =  2.1

     total cpu time spent up to now is        0.1 secs

     total energy              =     -15.78904666 Ry
     Harris-Foulkes estimate   =     -15.78904668 Ry
     estimated scf accuracy    <       0.00000004 Ry

     iteration #  6     ecut=    11.08 Ry     beta=0.70
     Davidson diagonalization with overlap
     ethr =  5.37E-10,  avg # of iterations =  2.7

     total cpu time spent up to now is        0.2 secs

     End of self-consistent calculation

          k = 0.0000 0.0000 0.0000 (   169 PWs)   bands (ev):

    -5.6856   6.3127   6.3127   6.3127

          k =-0.2000 0.2000-0.2000 (   168 PWs)   bands (ev):

    -5.1596   3.3023   5.7034   5.7034

          k =-0.4000 0.4000-0.4000 (   162 PWs)   bands (ev):

    -3.7323  -0.0169   5.1398   5.1398

          k = 0.0000 0.4000 0.0000 (   165 PWs)   bands (ev):

    -4.9746   3.7758   4.7622   4.7622

          k =-0.2000 0.6000-0.2000 (   159 PWs)   bands (ev):

    -3.7832   1.0354   3.6295   4.2391

          k = 0.6000-0.2000 0.6000 (   166 PWs)   bands (ev):

    -2.8674  -0.4374   2.7888   4.5289

          k = 0.4000 0.0000 0.4000 (   168 PWs)   bands (ev):

    -4.3148   1.8740   3.2040   5.4269

          k = 0.0000 0.8000 0.0000 (   162 PWs)   bands (ev):

    -2.9061   0.2271   3.5154   3.5154

          k = 0.8000 0.0000 0.8000 (   170 PWs)   bands (ev):

    -1.6736  -1.0895   2.0876   3.6360

          k = 0.6000-0.2000 1.0000 (   163 PWs)   bands (ev):

    -2.4304  -0.1920   2.1876   3.1997

     highest occupied level (ev):     6.3127

!    total energy              =     -15.78904667 Ry
     Harris-Foulkes estimate   =     -15.78904667 Ry
     estimated scf accuracy    <          4.7E-10 Ry

     The total energy is the sum of the following terms:

     one-electron contribution =       4.84555676 Ry
     hartree contribution      =       1.07139869 Ry
     xc contribution           =      -4.80624353 Ry
     ewald contribution        =     -16.89975860 Ry

     convergence has been achieved in   6 iterations

     Forces acting on atoms (Ry/au):

     atom    1 type  1   force =     0.00000000    0.00000000    0.00000000
     atom    2 type  1   force =     0.00000000    0.00000000   -0.00000000

     Total force =     0.000000     Total SCF correction =     0.000000


     entering subroutine stress ...

          total   stress  (Ry/bohr**3)                   (kbar)     P=  -37.39
  -0.00025419   0.00000000   0.00000000        -37.39      0.00      0.00
   0.00000000  -0.00025419  -0.00000000          0.00    -37.39     -0.00
   0.00000000  -0.00000000  -0.00025419          0.00     -0.00    -37.39


     Writing output data file silicon.save

     init_run     :      0.03s CPU      0.04s WALL (       1 calls)
     electrons    :      0.08s CPU      0.10s WALL (       1 calls)
     forces       :      0.00s CPU      0.00s WALL (       1 calls)
     stress       :      0.01s CPU      0.01s WALL (       1 calls)

     Called by init_run:
     wfcinit      :      0.01s CPU      0.01s WALL (       1 calls)
     potinit      :      0.00s CPU      0.00s WALL (       1 calls)

     Called by electrons:
     c_bands      :      0.07s CPU      0.08s WALL (       7 calls)
     sum_band     :      0.01s CPU      0.01s WALL (       7 calls)
     v_of_rho     :      0.00s CPU      0.00s WALL (       7 calls)
     mix_rho      :      0.00s CPU      0.00s WALL (       7 calls)

     Called by c_bands:
     init_us_2    :      0.01s CPU      0.01s WALL (     170 calls)
     cegterg      :      0.06s CPU      0.07s WALL (      70 calls)

     Called by sum_band:

     Called by *egterg:
     h_psi        :      0.05s CPU      0.06s WALL (     210 calls)
     g_psi        :      0.00s CPU      0.00s WALL (     130 calls)
     cdiaghg      :      0.00s CPU      0.01s WALL (     190 calls)

     Called by h_psi:
     h_psi:pot    :      0.05s CPU      0.06s WALL (     210 calls)
     h_psi:calbec :      0.00s CPU      0.00s WALL (     210 calls)
     vloc_psi     :      0.04s CPU      0.05s WALL (     210 calls)
     add_vuspsi   :      0.00s CPU      0.00s WALL (     210 calls)

     General routines
     calbec       :      0.00s CPU      0.00s WALL (     260 calls)
     fft          :      0.00s CPU      0.00s WALL (      34 calls)
     fftw         :      0.05s CPU      0.05s WALL (    1918 calls)
     davcio       :      0.00s CPU      0.00s WALL (      10 calls)

     Parallel routines
     fft_scatter  :      0.01s CPU      0.01s WALL (    1952 calls)

     PWSCF        :     0.18s CPU         0.20s WALL


   This run was terminated on:  12:52: 5  22Jun2018            

=------------------------------------------------------------------------------=
   JOB DONE.
=------------------------------------------------------------------------------=
