
     Program PWSCF v.6.0 (svn rev. 13079) starts on 22Jun2018 at 12:52:10 

     This program is part of the open-source Quantum ESPRESSO suite
     for quantum simulation of materials; please cite
         "P. Giannozzi et al., J. Phys.:Condens. Matter 21 395502 (2009);
          URL http://www.quantum-espresso.org", 
     in publications or presentations arising from this work. More details at
     http://www.quantum-espresso.org/quote

     Parallel version (MPI), running on     1 processors
     Waiting for input...
     Reading input from standard input

     Current dimensions of program PWSCF are:
     Max number of different atomic species (ntypx) = 10
     Max number of k-points (npk) =  40000
     Max angular momentum in pseudopotentials (lmaxx) =  3

     Subspace diagonalization in iterative solution of the eigenvalue problem:
     a serial algorithm will be used


     G-vector sticks info
     --------------------
     sticks:   dense  smooth     PW     G-vecs:    dense   smooth      PW
     Sum         361     361    121                 4477     4477     869



     bravais-lattice index     =            2
     lattice parameter (alat)  =      10.2000  a.u.
     unit-cell volume          =     265.3020 (a.u.)^3
     number of atoms/cell      =            2
     number of atomic types    =            1
     number of electrons       =         8.00
     number of Kohn-Sham states=            4
     kinetic-energy cutoff     =      24.9580  Ry
     charge density cutoff     =      99.8320  Ry
     convergence threshold     =      1.0E-08
     mixing beta               =       0.7000
     number of iterations used =            8  plain     mixing
     Exchange-correlation      =  SLA  PZ   NOGX NOGC ( 1  1  0  0 0 0)

     celldm(1)=  10.200000  celldm(2)=   0.000000  celldm(3)=   0.000000
     celldm(4)=   0.000000  celldm(5)=   0.000000  celldm(6)=   0.000000

     crystal axes: (cart. coord. in units of alat)
               a(1) = (  -0.500000   0.000000   0.500000 )  
               a(2) = (   0.000000   0.500000   0.500000 )  
               a(3) = (  -0.500000   0.500000   0.000000 )  

     reciprocal axes: (cart. coord. in units 2 pi/alat)
               b(1) = ( -1.000000 -1.000000  1.000000 )  
               b(2) = (  1.000000  1.000000  1.000000 )  
               b(3) = ( -1.000000  1.000000 -1.000000 )  


     PseudoPot. # 1 for Si read from file:
     ../../../PP/Si.pz-vbc.UPF
     MD5 check sum: 6dfa03ddd5817404712e03e4d12deb78
     Pseudo is Norm-conserving, Zval =  4.0
     Generated by new atomic code, or converted to UPF format
     Using radial grid of  431 points,  2 beta functions with: 
                l(1) =   0
                l(2) =   1

     atomic species   valence    mass     pseudopotential
        Si             4.00    28.08600     Si( 1.00)

     48 Sym. Ops., with inversion, found (24 have fractional translation)



   Cartesian axes

     site n.     atom                  positions (alat units)
         1           Si  tau(   1) = (   0.0000000   0.0000000   0.0000000  )
         2           Si  tau(   2) = (  -0.2500000   0.2500000   0.2500000  )

     number of k points=    10
                       cart. coord. in units 2pi/alat
        k(    1) = (   0.0000000   0.0000000   0.0000000), wk =   0.0160000
        k(    2) = (  -0.2000000   0.2000000  -0.2000000), wk =   0.1280000
        k(    3) = (  -0.4000000   0.4000000  -0.4000000), wk =   0.1280000
        k(    4) = (   0.0000000   0.4000000   0.0000000), wk =   0.0960000
        k(    5) = (  -0.2000000   0.6000000  -0.2000000), wk =   0.3840000
        k(    6) = (   0.6000000  -0.2000000   0.6000000), wk =   0.3840000
        k(    7) = (   0.4000000   0.0000000   0.4000000), wk =   0.1920000
        k(    8) = (   0.0000000   0.8000000   0.0000000), wk =   0.0960000
        k(    9) = (   0.8000000   0.0000000   0.8000000), wk =   0.1920000
        k(   10) = (   0.6000000  -0.2000000   1.0000000), wk =   0.3840000

     Dense  grid:     4477 G-vectors     FFT dimensions: (  24,  24,  24)

     Estimated max dynamical RAM per process >       3.33Mb

     Initial potential from superposition of free atoms

     starting charge    7.99901, renormalised to    8.00000
     Starting wfc are    8 randomized atomic wfcs

     total cpu time spent up to now is        0.1 secs

     per-process dynamical memory:     6.6 Mb

     Self-consistent Calculation

     iteration #  1     ecut=    24.96 Ry     beta=0.70
     Davidson diagonalization with overlap
     ethr =  1.00E-02,  avg # of iterations =  2.0

     Threshold (ethr) on eigenvalues was too large:
     Diagonalizing with lowered threshold

     Davidson diagonalization with overlap
     ethr =  8.20E-04,  avg # of iterations =  1.0

     total cpu time spent up to now is        0.2 secs

     total energy              =     -15.84294805 Ry
     Harris-Foulkes estimate   =     -15.86490868 Ry
     estimated scf accuracy    <       0.06427073 Ry

     iteration #  2     ecut=    24.96 Ry     beta=0.70
     Davidson diagonalization with overlap
     ethr =  8.03E-04,  avg # of iterations =  1.0

     total cpu time spent up to now is        0.3 secs

     total energy              =     -15.84610491 Ry
     Harris-Foulkes estimate   =     -15.84642287 Ry
     estimated scf accuracy    <       0.00225619 Ry

     iteration #  3     ecut=    24.96 Ry     beta=0.70
     Davidson diagonalization with overlap
     ethr =  2.82E-05,  avg # of iterations =  2.0

     total cpu time spent up to now is        0.3 secs

     total energy              =     -15.84649375 Ry
     Harris-Foulkes estimate   =     -15.84652312 Ry
     estimated scf accuracy    <       0.00007144 Ry

     iteration #  4     ecut=    24.96 Ry     beta=0.70
     Davidson diagonalization with overlap
     ethr =  8.93E-07,  avg # of iterations =  2.2

     total cpu time spent up to now is        0.4 secs

     total energy              =     -15.84651138 Ry
     Harris-Foulkes estimate   =     -15.84651468 Ry
     estimated scf accuracy    <       0.00000690 Ry

     iteration #  5     ecut=    24.96 Ry     beta=0.70
     Davidson diagonalization with overlap
     ethr =  8.63E-08,  avg # of iterations =  2.2

     total cpu time spent up to now is        0.4 secs

     total energy              =     -15.84651248 Ry
     Harris-Foulkes estimate   =     -15.84651253 Ry
     estimated scf accuracy    <       0.00000011 Ry

     iteration #  6     ecut=    24.96 Ry     beta=0.70
     Davidson diagonalization with overlap
     ethr =  1.34E-09,  avg # of iterations =  2.4

     total cpu time spent up to now is        0.5 secs

     End of self-consistent calculation

          k = 0.0000 0.0000 0.0000 (   537 PWs)   bands (ev):

    -5.8083   6.2527   6.2527   6.2527

          k =-0.2000 0.2000-0.2000 (   564 PWs)   bands (ev):

    -5.2820   3.2230   5.6615   5.6615

          k =-0.4000 0.4000-0.4000 (   559 PWs)   bands (ev):

    -3.8862  -0.0948   5.1069   5.1069

          k = 0.0000 0.4000 0.0000 (   568 PWs)   bands (ev):

    -5.1014   3.6573   4.7305   4.7305

          k =-0.2000 0.6000-0.2000 (   556 PWs)   bands (ev):

    -3.9374   0.9210   3.5787   4.2146

          k = 0.6000-0.2000 0.6000 (   562 PWs)   bands (ev):

    -3.0230  -0.5141   2.7513   4.5052

          k = 0.4000 0.0000 0.4000 (   562 PWs)   bands (ev):

    -4.4347   1.7693   3.1745   5.3935

          k = 0.0000 0.8000 0.0000 (   560 PWs)   bands (ev):

    -3.0498   0.0722   3.5017   3.5017

          k = 0.8000 0.0000 0.8000 (   552 PWs)   bands (ev):

    -1.8093  -1.2124   2.0750   3.6237

          k = 0.6000-0.2000 1.0000 (   565 PWs)   bands (ev):

    -2.5934  -0.3157   2.1664   3.1793

     highest occupied level (ev):     6.2527

!    total energy              =     -15.84651250 Ry
     Harris-Foulkes estimate   =     -15.84651250 Ry
     estimated scf accuracy    <          4.3E-10 Ry

     The total energy is the sum of the following terms:

     one-electron contribution =       4.78622148 Ry
     hartree contribution      =       1.08781252 Ry
     xc contribution           =      -4.82078791 Ry
     ewald contribution        =     -16.89975860 Ry

     convergence has been achieved in   6 iterations

     Forces acting on atoms (Ry/au):

     atom    1 type  1   force =     0.00000000    0.00000000    0.00000000
     atom    2 type  1   force =    -0.00000000   -0.00000000   -0.00000000

     Total force =     0.000000     Total SCF correction =     0.000000


     entering subroutine stress ...

          total   stress  (Ry/bohr**3)                   (kbar)     P=    2.11
   0.00001435  -0.00000000  -0.00000000          2.11     -0.00     -0.00
  -0.00000000   0.00001435   0.00000000         -0.00      2.11      0.00
  -0.00000000   0.00000000   0.00001435         -0.00      0.00      2.11


     Writing output data file silicon.save

     init_run     :      0.11s CPU      0.11s WALL (       1 calls)
     electrons    :      0.33s CPU      0.34s WALL (       1 calls)
     forces       :      0.00s CPU      0.01s WALL (       1 calls)
     stress       :      0.02s CPU      0.03s WALL (       1 calls)

     Called by init_run:
     wfcinit      :      0.05s CPU      0.05s WALL (       1 calls)
     potinit      :      0.00s CPU      0.00s WALL (       1 calls)

     Called by electrons:
     c_bands      :      0.26s CPU      0.26s WALL (       7 calls)
     sum_band     :      0.06s CPU      0.07s WALL (       7 calls)
     v_of_rho     :      0.01s CPU      0.01s WALL (       7 calls)
     mix_rho      :      0.00s CPU      0.00s WALL (       7 calls)

     Called by c_bands:
     init_us_2    :      0.01s CPU      0.01s WALL (     170 calls)
     cegterg      :      0.24s CPU      0.25s WALL (      70 calls)

     Called by sum_band:

     Called by *egterg:
     h_psi        :      0.24s CPU      0.26s WALL (     208 calls)
     g_psi        :      0.00s CPU      0.00s WALL (     128 calls)
     cdiaghg      :      0.01s CPU      0.01s WALL (     188 calls)

     Called by h_psi:
     h_psi:pot    :      0.24s CPU      0.26s WALL (     208 calls)
     h_psi:calbec :      0.02s CPU      0.01s WALL (     208 calls)
     vloc_psi     :      0.20s CPU      0.25s WALL (     208 calls)
     add_vuspsi   :      0.01s CPU      0.01s WALL (     208 calls)

     General routines
     calbec       :      0.02s CPU      0.01s WALL (     258 calls)
     fft          :      0.02s CPU      0.02s WALL (      34 calls)
     fftw         :      0.22s CPU      0.26s WALL (    1938 calls)
     davcio       :      0.00s CPU      0.00s WALL (      10 calls)

     Parallel routines
     fft_scatter  :      0.02s CPU      0.02s WALL (    1972 calls)

     PWSCF        :     0.52s CPU         0.53s WALL


   This run was terminated on:  12:52:10  22Jun2018            

=------------------------------------------------------------------------------=
   JOB DONE.
=------------------------------------------------------------------------------=
