
     Program PWSCF v.6.0 (svn rev. 13079) starts on 16Apr2018 at 16:28:34 

     This program is part of the open-source Quantum ESPRESSO suite
     for quantum simulation of materials; please cite
         "P. Giannozzi et al., J. Phys.:Condens. Matter 21 395502 (2009);
          URL http://www.quantum-espresso.org", 
     in publications or presentations arising from this work. More details at
     http://www.quantum-espresso.org/quote

     Parallel version (MPI), running on     1 processors
     Waiting for input...
     Reading input from standard input
     Message from routine read_cards :
     DEPRECATED: no units specified in ATOMIC_POSITIONS card
     Message from routine read_cards :
     ATOMIC_POSITIONS: units set to alat

     Current dimensions of program PWSCF are:
     Max number of different atomic species (ntypx) = 10
     Max number of k-points (npk) =  40000
     Max angular momentum in pseudopotentials (lmaxx) =  3

     Subspace diagonalization in iterative solution of the eigenvalue problem:
     a serial algorithm will be used


     G-vector sticks info
     --------------------
     sticks:   dense  smooth     PW     G-vecs:    dense   smooth      PW
     Sum         151     151     61                 1243     1243     331



     bravais-lattice index     =            2
     lattice parameter (alat)  =       7.5000  a.u.
     unit-cell volume          =     105.4688 (a.u.)^3
     number of atoms/cell      =            1
     number of atomic types    =            1
     number of electrons       =         3.00
     number of Kohn-Sham states=            6
     kinetic-energy cutoff     =      20.0000  Ry
     charge density cutoff     =      80.0000  Ry
     convergence threshold     =      1.0E-06
     mixing beta               =       0.7000
     number of iterations used =            8  plain     mixing
     Exchange-correlation      =  SLA  PZ   NOGX NOGC ( 1  1  0  0 0 0)

     celldm(1)=   7.500000  celldm(2)=   0.000000  celldm(3)=   0.000000
     celldm(4)=   0.000000  celldm(5)=   0.000000  celldm(6)=   0.000000

     crystal axes: (cart. coord. in units of alat)
               a(1) = (  -0.500000   0.000000   0.500000 )  
               a(2) = (   0.000000   0.500000   0.500000 )  
               a(3) = (  -0.500000   0.500000   0.000000 )  

     reciprocal axes: (cart. coord. in units 2 pi/alat)
               b(1) = ( -1.000000 -1.000000  1.000000 )  
               b(2) = (  1.000000  1.000000  1.000000 )  
               b(3) = ( -1.000000  1.000000 -1.000000 )  


     PseudoPot. # 1 for Al read from file:
     ../../../PP/Al.pz-vbc.UPF
     MD5 check sum: f06ceae8da0fe5c02c98e3688433298c
     Pseudo is Norm-conserving, Zval =  3.0
     Generated by new atomic code, or converted to UPF format
     Using radial grid of  171 points,  2 beta functions with: 
                l(1) =   0
                l(2) =   1

     atomic species   valence    mass     pseudopotential
        Al             3.00    26.98000     Al( 1.00)

     48 Sym. Ops., with inversion, found



   Cartesian axes

     site n.     atom                  positions (alat units)
         1           Al  tau(   1) = (   0.0000000   0.0000000   0.0000000  )

     number of k points=   256  Marzari-Vanderbilt smearing, width (Ry)=  0.0500

     Number of k-points >= 100: set verbosity='high' to print them.

     Dense  grid:     1243 G-vectors     FFT dimensions: (  15,  15,  15)

     Estimated max dynamical RAM per process >       4.56Mb

     Initial potential from superposition of free atoms

     starting charge    2.99794, renormalised to    3.00000
     Starting wfc are    4 randomized atomic wfcs +    2 random wfc

     total cpu time spent up to now is        0.2 secs

     per-process dynamical memory:     8.8 Mb

     Self-consistent Calculation

     iteration #  1     ecut=    20.00 Ry     beta=0.70
     Davidson diagonalization with overlap
     ethr =  1.00E-02,  avg # of iterations =  4.4

     Threshold (ethr) on eigenvalues was too large:
     Diagonalizing with lowered threshold

     Davidson diagonalization with overlap
     ethr =  1.93E-04,  avg # of iterations =  1.3

     total cpu time spent up to now is        1.5 secs

     total energy              =      -4.18917587 Ry
     Harris-Foulkes estimate   =      -4.18994751 Ry
     estimated scf accuracy    <       0.00577344 Ry

     iteration #  2     ecut=    20.00 Ry     beta=0.70
     Davidson diagonalization with overlap
     ethr =  1.92E-04,  avg # of iterations =  1.0

     total cpu time spent up to now is        1.9 secs

     total energy              =      -4.18917736 Ry
     Harris-Foulkes estimate   =      -4.18920070 Ry
     estimated scf accuracy    <       0.00044684 Ry

     iteration #  3     ecut=    20.00 Ry     beta=0.70
     Davidson diagonalization with overlap
     ethr =  1.49E-05,  avg # of iterations =  1.4

     total cpu time spent up to now is        2.4 secs

     End of self-consistent calculation

     Number of k-points >= 100: set verbosity='high' to print the bands.

     the Fermi energy is     8.2850 ev

!    total energy              =      -4.18918042 Ry
     Harris-Foulkes estimate   =      -4.18918031 Ry
     estimated scf accuracy    <       0.00000031 Ry

     The total energy is the sum of the following terms:

     one-electron contribution =       2.93761369 Ry
     hartree contribution      =       0.00979829 Ry
     xc contribution           =      -1.63471845 Ry
     ewald contribution        =      -5.50183460 Ry
     smearing contrib. (-TS)   =      -0.00003934 Ry

     convergence has been achieved in   3 iterations

     Forces acting on atoms (Ry/au):

     atom    1 type  1   force =     0.00000000    0.00000000    0.00000000

     Total force =     0.000000     Total SCF correction =     0.000000


     entering subroutine stress ...

          total   stress  (Ry/bohr**3)                   (kbar)     P=   -8.94
  -0.00006078  -0.00000000  -0.00000000         -8.94     -0.00     -0.00
  -0.00000000  -0.00006078  -0.00000000         -0.00     -8.94     -0.00
  -0.00000000  -0.00000000  -0.00006078         -0.00     -0.00     -8.94


     Writing output data file aluminium.save

     init_run     :      0.18s CPU      0.19s WALL (       1 calls)
     electrons    :      2.05s CPU      2.16s WALL (       1 calls)
     forces       :      0.02s CPU      0.03s WALL (       1 calls)
     stress       :      0.17s CPU      0.17s WALL (       1 calls)

     Called by init_run:
     wfcinit      :      0.16s CPU      0.18s WALL (       1 calls)
     potinit      :      0.00s CPU      0.00s WALL (       1 calls)

     Called by electrons:
     c_bands      :      1.81s CPU      1.90s WALL (       4 calls)
     sum_band     :      0.24s CPU      0.26s WALL (       4 calls)
     v_of_rho     :      0.00s CPU      0.00s WALL (       4 calls)
     mix_rho      :      0.00s CPU      0.00s WALL (       4 calls)

     Called by c_bands:
     init_us_2    :      0.08s CPU      0.12s WALL (    2816 calls)
     cegterg      :      1.74s CPU      1.80s WALL (    1024 calls)

     Called by sum_band:

     Called by *egterg:
     h_psi        :      1.24s CPU      1.27s WALL (    3372 calls)
     g_psi        :      0.01s CPU      0.01s WALL (    2092 calls)
     cdiaghg      :      0.27s CPU      0.27s WALL (    2860 calls)

     Called by h_psi:
     h_psi:pot    :      1.23s CPU      1.25s WALL (    3372 calls)
     h_psi:calbec :      0.03s CPU      0.05s WALL (    3372 calls)
     vloc_psi     :      1.15s CPU      1.15s WALL (    3372 calls)
     add_vuspsi   :      0.05s CPU      0.04s WALL (    3372 calls)

     General routines
     calbec       :      0.03s CPU      0.06s WALL (    4652 calls)
     fft          :      0.00s CPU      0.00s WALL (      22 calls)
     fftw         :      1.09s CPU      1.08s WALL (   40738 calls)
     davcio       :      0.00s CPU      0.00s WALL (     256 calls)

     Parallel routines
     fft_scatter  :      0.20s CPU      0.17s WALL (   40760 calls)

     PWSCF        :     2.82s CPU         3.01s WALL


   This run was terminated on:  16:28:37  16Apr2018            

=------------------------------------------------------------------------------=
   JOB DONE.
=------------------------------------------------------------------------------=
