
     Program PWSCF v.6.0 (svn rev. 13079) starts on 22Jun2018 at 12:52:14 

     This program is part of the open-source Quantum ESPRESSO suite
     for quantum simulation of materials; please cite
         "P. Giannozzi et al., J. Phys.:Condens. Matter 21 395502 (2009);
          URL http://www.quantum-espresso.org", 
     in publications or presentations arising from this work. More details at
     http://www.quantum-espresso.org/quote

     Parallel version (MPI), running on     1 processors
     Waiting for input...
     Reading input from standard input

     Current dimensions of program PWSCF are:
     Max number of different atomic species (ntypx) = 10
     Max number of k-points (npk) =  40000
     Max angular momentum in pseudopotentials (lmaxx) =  3

     Subspace diagonalization in iterative solution of the eigenvalue problem:
     a serial algorithm will be used


     G-vector sticks info
     --------------------
     sticks:   dense  smooth     PW     G-vecs:    dense   smooth      PW
     Sum         499     499    151                 7239     7239    1243



     bravais-lattice index     =            2
     lattice parameter (alat)  =      10.2000  a.u.
     unit-cell volume          =     265.3020 (a.u.)^3
     number of atoms/cell      =            2
     number of atomic types    =            1
     number of electrons       =         8.00
     number of Kohn-Sham states=            4
     kinetic-energy cutoff     =      34.2080  Ry
     charge density cutoff     =     136.8320  Ry
     convergence threshold     =      1.0E-08
     mixing beta               =       0.7000
     number of iterations used =            8  plain     mixing
     Exchange-correlation      =  SLA  PZ   NOGX NOGC ( 1  1  0  0 0 0)

     celldm(1)=  10.200000  celldm(2)=   0.000000  celldm(3)=   0.000000
     celldm(4)=   0.000000  celldm(5)=   0.000000  celldm(6)=   0.000000

     crystal axes: (cart. coord. in units of alat)
               a(1) = (  -0.500000   0.000000   0.500000 )  
               a(2) = (   0.000000   0.500000   0.500000 )  
               a(3) = (  -0.500000   0.500000   0.000000 )  

     reciprocal axes: (cart. coord. in units 2 pi/alat)
               b(1) = ( -1.000000 -1.000000  1.000000 )  
               b(2) = (  1.000000  1.000000  1.000000 )  
               b(3) = ( -1.000000  1.000000 -1.000000 )  


     PseudoPot. # 1 for Si read from file:
     ../../../PP/Si.pz-vbc.UPF
     MD5 check sum: 6dfa03ddd5817404712e03e4d12deb78
     Pseudo is Norm-conserving, Zval =  4.0
     Generated by new atomic code, or converted to UPF format
     Using radial grid of  431 points,  2 beta functions with: 
                l(1) =   0
                l(2) =   1

     atomic species   valence    mass     pseudopotential
        Si             4.00    28.08600     Si( 1.00)

     24 Sym. Ops. (no inversion) found
          (note: 24 additional sym.ops. were found but ignored
           their fractional translations are incommensurate with FFT grid)


   Cartesian axes

     site n.     atom                  positions (alat units)
         1           Si  tau(   1) = (   0.0000000   0.0000000   0.0000000  )
         2           Si  tau(   2) = (  -0.2500000   0.2500000   0.2500000  )

     number of k points=    10
                       cart. coord. in units 2pi/alat
        k(    1) = (   0.0000000   0.0000000   0.0000000), wk =   0.0160000
        k(    2) = (  -0.2000000   0.2000000  -0.2000000), wk =   0.1280000
        k(    3) = (  -0.4000000   0.4000000  -0.4000000), wk =   0.1280000
        k(    4) = (   0.0000000   0.4000000   0.0000000), wk =   0.0960000
        k(    5) = (  -0.2000000   0.6000000  -0.2000000), wk =   0.3840000
        k(    6) = (   0.6000000  -0.2000000   0.6000000), wk =   0.3840000
        k(    7) = (   0.4000000   0.0000000   0.4000000), wk =   0.1920000
        k(    8) = (   0.0000000   0.8000000   0.0000000), wk =   0.0960000
        k(    9) = (   0.8000000   0.0000000   0.8000000), wk =   0.1920000
        k(   10) = (   0.6000000  -0.2000000   1.0000000), wk =   0.3840000

     Dense  grid:     7239 G-vectors     FFT dimensions: (  27,  27,  27)

     Estimated max dynamical RAM per process >       5.19Mb

     Initial potential from superposition of free atoms

     starting charge    7.99901, renormalised to    8.00000
     Starting wfc are    8 randomized atomic wfcs

     total cpu time spent up to now is        0.2 secs

     per-process dynamical memory:     7.5 Mb

     Self-consistent Calculation

     iteration #  1     ecut=    34.21 Ry     beta=0.70
     Davidson diagonalization with overlap
     ethr =  1.00E-02,  avg # of iterations =  2.0

     Threshold (ethr) on eigenvalues was too large:
     Diagonalizing with lowered threshold

     Davidson diagonalization with overlap
     ethr =  8.24E-04,  avg # of iterations =  1.0

     total cpu time spent up to now is        0.3 secs

     total energy              =     -15.84438861 Ry
     Harris-Foulkes estimate   =     -15.86636811 Ry
     estimated scf accuracy    <       0.06432445 Ry

     iteration #  2     ecut=    34.21 Ry     beta=0.70
     Davidson diagonalization with overlap
     ethr =  8.04E-04,  avg # of iterations =  1.0

     total cpu time spent up to now is        0.4 secs

     total energy              =     -15.84754081 Ry
     Harris-Foulkes estimate   =     -15.84785869 Ry
     estimated scf accuracy    <       0.00225512 Ry

     iteration #  3     ecut=    34.21 Ry     beta=0.70
     Davidson diagonalization with overlap
     ethr =  2.82E-05,  avg # of iterations =  2.1

     total cpu time spent up to now is        0.5 secs

     total energy              =     -15.84793718 Ry
     Harris-Foulkes estimate   =     -15.84796702 Ry
     estimated scf accuracy    <       0.00007310 Ry

     iteration #  4     ecut=    34.21 Ry     beta=0.70
     Davidson diagonalization with overlap
     ethr =  9.14E-07,  avg # of iterations =  2.2

     total cpu time spent up to now is        0.6 secs

     total energy              =     -15.84795679 Ry
     Harris-Foulkes estimate   =     -15.84796054 Ry
     estimated scf accuracy    <       0.00000789 Ry

     iteration #  5     ecut=    34.21 Ry     beta=0.70
     Davidson diagonalization with overlap
     ethr =  9.87E-08,  avg # of iterations =  2.1

     total cpu time spent up to now is        0.7 secs

     total energy              =     -15.84795807 Ry
     Harris-Foulkes estimate   =     -15.84795812 Ry
     estimated scf accuracy    <       0.00000013 Ry

     iteration #  6     ecut=    34.21 Ry     beta=0.70
     Davidson diagonalization with overlap
     ethr =  1.62E-09,  avg # of iterations =  2.4

     total cpu time spent up to now is        0.8 secs

     End of self-consistent calculation

          k = 0.0000 0.0000 0.0000 (   893 PWs)   bands (ev):

    -5.8082   6.2474   6.2474   6.2474

          k =-0.2000 0.2000-0.2000 (   914 PWs)   bands (ev):

    -5.2819   3.2205   5.6581   5.6581

          k =-0.4000 0.4000-0.4000 (   899 PWs)   bands (ev):

    -3.8864  -0.0966   5.1043   5.1043

          k = 0.0000 0.4000 0.0000 (   889 PWs)   bands (ev):

    -5.1012   3.6542   4.7283   4.7283

          k =-0.2000 0.6000-0.2000 (   891 PWs)   bands (ev):

    -3.9376   0.9191   3.5761   4.2125

          k = 0.6000-0.2000 0.6000 (   887 PWs)   bands (ev):

    -3.0233  -0.5155   2.7492   4.5031

          k = 0.4000 0.0000 0.4000 (   909 PWs)   bands (ev):

    -4.4348   1.7673   3.1725   5.3904

          k = 0.0000 0.8000 0.0000 (   894 PWs)   bands (ev):

    -3.0502   0.0705   3.4999   3.4999

          k = 0.8000 0.0000 0.8000 (   904 PWs)   bands (ev):

    -1.8102  -1.2136   2.0734   3.6218

          k = 0.6000-0.2000 1.0000 (   896 PWs)   bands (ev):

    -2.5940  -0.3170   2.1648   3.1777

     highest occupied level (ev):     6.2474

!    total energy              =     -15.84795810 Ry
     Harris-Foulkes estimate   =     -15.84795810 Ry
     estimated scf accuracy    <          5.4E-10 Ry

     The total energy is the sum of the following terms:

     one-electron contribution =       4.78450024 Ry
     hartree contribution      =       1.08836538 Ry
     xc contribution           =      -4.82106513 Ry
     ewald contribution        =     -16.89975860 Ry

     convergence has been achieved in   6 iterations

     Forces acting on atoms (Ry/au):

     atom    1 type  1   force =    -0.00000000    0.00000000   -0.00000000
     atom    2 type  1   force =     0.00000000   -0.00000000    0.00000000

     Total force =     0.000000     Total SCF correction =     0.000000


     entering subroutine stress ...

          total   stress  (Ry/bohr**3)                   (kbar)     P=    3.05
   0.00002074   0.00000000   0.00000000          3.05      0.00      0.00
   0.00000000   0.00002074   0.00000000          0.00      3.05      0.00
  -0.00000000  -0.00000000   0.00002074         -0.00     -0.00      3.05


     Writing output data file silicon.save

     init_run     :      0.14s CPU      0.15s WALL (       1 calls)
     electrons    :      0.61s CPU      0.62s WALL (       1 calls)
     forces       :      0.01s CPU      0.01s WALL (       1 calls)
     stress       :      0.04s CPU      0.04s WALL (       1 calls)

     Called by init_run:
     wfcinit      :      0.08s CPU      0.08s WALL (       1 calls)
     potinit      :      0.00s CPU      0.01s WALL (       1 calls)

     Called by electrons:
     c_bands      :      0.49s CPU      0.50s WALL (       7 calls)
     sum_band     :      0.10s CPU      0.10s WALL (       7 calls)
     v_of_rho     :      0.02s CPU      0.01s WALL (       7 calls)
     mix_rho      :      0.00s CPU      0.00s WALL (       7 calls)

     Called by c_bands:
     init_us_2    :      0.03s CPU      0.02s WALL (     170 calls)
     cegterg      :      0.48s CPU      0.49s WALL (      70 calls)

     Called by sum_band:

     Called by *egterg:
     h_psi        :      0.51s CPU      0.52s WALL (     208 calls)
     g_psi        :      0.00s CPU      0.00s WALL (     128 calls)
     cdiaghg      :      0.00s CPU      0.01s WALL (     188 calls)

     Called by h_psi:
     h_psi:pot    :      0.51s CPU      0.51s WALL (     208 calls)
     h_psi:calbec :      0.02s CPU      0.01s WALL (     208 calls)
     vloc_psi     :      0.48s CPU      0.49s WALL (     208 calls)
     add_vuspsi   :      0.01s CPU      0.01s WALL (     208 calls)

     General routines
     calbec       :      0.02s CPU      0.01s WALL (     258 calls)
     fft          :      0.01s CPU      0.02s WALL (      34 calls)
     fftw         :      0.52s CPU      0.53s WALL (    1944 calls)
     davcio       :      0.00s CPU      0.00s WALL (      10 calls)

     Parallel routines
     fft_scatter  :      0.03s CPU      0.03s WALL (    1978 calls)

     PWSCF        :     0.85s CPU         0.86s WALL


   This run was terminated on:  12:52:15  22Jun2018            

=------------------------------------------------------------------------------=
   JOB DONE.
=------------------------------------------------------------------------------=
