
     Program PWSCF v.6.0 (svn rev. 13079) starts on 22Jun2018 at 12:52:20 

     This program is part of the open-source Quantum ESPRESSO suite
     for quantum simulation of materials; please cite
         "P. Giannozzi et al., J. Phys.:Condens. Matter 21 395502 (2009);
          URL http://www.quantum-espresso.org", 
     in publications or presentations arising from this work. More details at
     http://www.quantum-espresso.org/quote

     Parallel version (MPI), running on     1 processors
     Waiting for input...
     Reading input from standard input

     Current dimensions of program PWSCF are:
     Max number of different atomic species (ntypx) = 10
     Max number of k-points (npk) =  40000
     Max angular momentum in pseudopotentials (lmaxx) =  3

     Subspace diagonalization in iterative solution of the eigenvalue problem:
     a serial algorithm will be used


     G-vector sticks info
     --------------------
     sticks:   dense  smooth     PW     G-vecs:    dense   smooth      PW
     Sum         583     583    187                 9257     9257    1639



     bravais-lattice index     =            2
     lattice parameter (alat)  =      10.2000  a.u.
     unit-cell volume          =     265.3020 (a.u.)^3
     number of atoms/cell      =            2
     number of atomic types    =            1
     number of electrons       =         8.00
     number of Kohn-Sham states=            4
     kinetic-energy cutoff     =      40.3750  Ry
     charge density cutoff     =     161.5000  Ry
     convergence threshold     =      1.0E-08
     mixing beta               =       0.7000
     number of iterations used =            8  plain     mixing
     Exchange-correlation      =  SLA  PZ   NOGX NOGC ( 1  1  0  0 0 0)

     celldm(1)=  10.200000  celldm(2)=   0.000000  celldm(3)=   0.000000
     celldm(4)=   0.000000  celldm(5)=   0.000000  celldm(6)=   0.000000

     crystal axes: (cart. coord. in units of alat)
               a(1) = (  -0.500000   0.000000   0.500000 )  
               a(2) = (   0.000000   0.500000   0.500000 )  
               a(3) = (  -0.500000   0.500000   0.000000 )  

     reciprocal axes: (cart. coord. in units 2 pi/alat)
               b(1) = ( -1.000000 -1.000000  1.000000 )  
               b(2) = (  1.000000  1.000000  1.000000 )  
               b(3) = ( -1.000000  1.000000 -1.000000 )  


     PseudoPot. # 1 for Si read from file:
     ../../../PP/Si.pz-vbc.UPF
     MD5 check sum: 6dfa03ddd5817404712e03e4d12deb78
     Pseudo is Norm-conserving, Zval =  4.0
     Generated by new atomic code, or converted to UPF format
     Using radial grid of  431 points,  2 beta functions with: 
                l(1) =   0
                l(2) =   1

     atomic species   valence    mass     pseudopotential
        Si             4.00    28.08600     Si( 1.00)

     24 Sym. Ops. (no inversion) found
          (note: 24 additional sym.ops. were found but ignored
           their fractional translations are incommensurate with FFT grid)


   Cartesian axes

     site n.     atom                  positions (alat units)
         1           Si  tau(   1) = (   0.0000000   0.0000000   0.0000000  )
         2           Si  tau(   2) = (  -0.2500000   0.2500000   0.2500000  )

     number of k points=    10
                       cart. coord. in units 2pi/alat
        k(    1) = (   0.0000000   0.0000000   0.0000000), wk =   0.0160000
        k(    2) = (  -0.2000000   0.2000000  -0.2000000), wk =   0.1280000
        k(    3) = (  -0.4000000   0.4000000  -0.4000000), wk =   0.1280000
        k(    4) = (   0.0000000   0.4000000   0.0000000), wk =   0.0960000
        k(    5) = (  -0.2000000   0.6000000  -0.2000000), wk =   0.3840000
        k(    6) = (   0.6000000  -0.2000000   0.6000000), wk =   0.3840000
        k(    7) = (   0.4000000   0.0000000   0.4000000), wk =   0.1920000
        k(    8) = (   0.0000000   0.8000000   0.0000000), wk =   0.0960000
        k(    9) = (   0.8000000   0.0000000   0.8000000), wk =   0.1920000
        k(   10) = (   0.6000000  -0.2000000   1.0000000), wk =   0.3840000

     Dense  grid:     9257 G-vectors     FFT dimensions: (  30,  30,  30)

     Estimated max dynamical RAM per process >       6.76Mb

     Initial potential from superposition of free atoms

     starting charge    7.99901, renormalised to    8.00000
     Starting wfc are    8 randomized atomic wfcs

     total cpu time spent up to now is        0.2 secs

     per-process dynamical memory:     9.3 Mb

     Self-consistent Calculation

     iteration #  1     ecut=    40.38 Ry     beta=0.70
     Davidson diagonalization with overlap
     ethr =  1.00E-02,  avg # of iterations =  2.0

     Threshold (ethr) on eigenvalues was too large:
     Diagonalizing with lowered threshold

     Davidson diagonalization with overlap
     ethr =  8.24E-04,  avg # of iterations =  1.0

     total cpu time spent up to now is        0.5 secs

     total energy              =     -15.84479577 Ry
     Harris-Foulkes estimate   =     -15.86681200 Ry
     estimated scf accuracy    <       0.06432657 Ry

     iteration #  2     ecut=    40.38 Ry     beta=0.70
     Davidson diagonalization with overlap
     ethr =  8.04E-04,  avg # of iterations =  1.0

     total cpu time spent up to now is        0.6 secs

     total energy              =     -15.84795790 Ry
     Harris-Foulkes estimate   =     -15.84827701 Ry
     estimated scf accuracy    <       0.00225216 Ry

     iteration #  3     ecut=    40.38 Ry     beta=0.70
     Davidson diagonalization with overlap
     ethr =  2.82E-05,  avg # of iterations =  2.1

     total cpu time spent up to now is        0.8 secs

     total energy              =     -15.84835623 Ry
     Harris-Foulkes estimate   =     -15.84838627 Ry
     estimated scf accuracy    <       0.00007354 Ry

     iteration #  4     ecut=    40.38 Ry     beta=0.70
     Davidson diagonalization with overlap
     ethr =  9.19E-07,  avg # of iterations =  2.2

     total cpu time spent up to now is        1.0 secs

     total energy              =     -15.84837648 Ry
     Harris-Foulkes estimate   =     -15.84838029 Ry
     estimated scf accuracy    <       0.00000806 Ry

     iteration #  5     ecut=    40.38 Ry     beta=0.70
     Davidson diagonalization with overlap
     ethr =  1.01E-07,  avg # of iterations =  2.2

     total cpu time spent up to now is        1.2 secs

     total energy              =     -15.84837780 Ry
     Harris-Foulkes estimate   =     -15.84837785 Ry
     estimated scf accuracy    <       0.00000013 Ry

     iteration #  6     ecut=    40.38 Ry     beta=0.70
     Davidson diagonalization with overlap
     ethr =  1.62E-09,  avg # of iterations =  2.4

     total cpu time spent up to now is        1.3 secs

     End of self-consistent calculation

          k = 0.0000 0.0000 0.0000 (  1139 PWs)   bands (ev):

    -5.8089   6.2471   6.2471   6.2471

          k =-0.2000 0.2000-0.2000 (  1167 PWs)   bands (ev):

    -5.2826   3.2199   5.6579   5.6579

          k =-0.4000 0.4000-0.4000 (  1149 PWs)   bands (ev):

    -3.8872  -0.0972   5.1042   5.1042

          k = 0.0000 0.4000 0.0000 (  1158 PWs)   bands (ev):

    -5.1021   3.6528   4.7282   4.7282

          k =-0.2000 0.6000-0.2000 (  1156 PWs)   bands (ev):

    -3.9384   0.9182   3.5757   4.2125

          k = 0.6000-0.2000 0.6000 (  1151 PWs)   bands (ev):

    -3.0242  -0.5162   2.7489   4.5030

          k = 0.4000 0.0000 0.4000 (  1151 PWs)   bands (ev):

    -4.4355   1.7665   3.1724   5.3903

          k = 0.0000 0.8000 0.0000 (  1154 PWs)   bands (ev):

    -3.0511   0.0695   3.5000   3.5000

          k = 0.8000 0.0000 0.8000 (  1144 PWs)   bands (ev):

    -1.8111  -1.2145   2.0734   3.6218

          k = 0.6000-0.2000 1.0000 (  1151 PWs)   bands (ev):

    -2.5949  -0.3180   2.1647   3.1776

     highest occupied level (ev):     6.2471

!    total energy              =     -15.84837783 Ry
     Harris-Foulkes estimate   =     -15.84837783 Ry
     estimated scf accuracy    <          9.9E-10 Ry

     The total energy is the sum of the following terms:

     one-electron contribution =       4.78387820 Ry
     hartree contribution      =       1.08854392 Ry
     xc contribution           =      -4.82104136 Ry
     ewald contribution        =     -16.89975860 Ry

     convergence has been achieved in   6 iterations

     Forces acting on atoms (Ry/au):

     atom    1 type  1   force =     0.00000000   -0.00000000    0.00000000
     atom    2 type  1   force =     0.00000000   -0.00000000    0.00000000

     Total force =     0.000000     Total SCF correction =     0.000000


     entering subroutine stress ...

          total   stress  (Ry/bohr**3)                   (kbar)     P=    3.39
   0.00002307  -0.00000000  -0.00000000          3.39     -0.00     -0.00
  -0.00000000   0.00002307   0.00000000         -0.00      3.39      0.00
  -0.00000000   0.00000000   0.00002307         -0.00      0.00      3.39


     Writing output data file silicon.save

     init_run     :      0.20s CPU      0.20s WALL (       1 calls)
     electrons    :      1.12s CPU      1.13s WALL (       1 calls)
     forces       :      0.02s CPU      0.02s WALL (       1 calls)
     stress       :      0.05s CPU      0.05s WALL (       1 calls)

     Called by init_run:
     wfcinit      :      0.13s CPU      0.13s WALL (       1 calls)
     potinit      :      0.01s CPU      0.01s WALL (       1 calls)

     Called by electrons:
     c_bands      :      0.92s CPU      0.92s WALL (       7 calls)
     sum_band     :      0.18s CPU      0.18s WALL (       7 calls)
     v_of_rho     :      0.02s CPU      0.02s WALL (       7 calls)
     mix_rho      :      0.00s CPU      0.01s WALL (       7 calls)

     Called by c_bands:
     init_us_2    :      0.02s CPU      0.03s WALL (     170 calls)
     cegterg      :      0.90s CPU      0.91s WALL (      70 calls)

     Called by sum_band:

     Called by *egterg:
     h_psi        :      0.97s CPU      0.98s WALL (     209 calls)
     g_psi        :      0.01s CPU      0.00s WALL (     129 calls)
     cdiaghg      :      0.00s CPU      0.01s WALL (     189 calls)

     Called by h_psi:
     h_psi:pot    :      0.97s CPU      0.97s WALL (     209 calls)
     h_psi:calbec :      0.01s CPU      0.01s WALL (     209 calls)
     vloc_psi     :      0.95s CPU      0.95s WALL (     209 calls)
     add_vuspsi   :      0.01s CPU      0.01s WALL (     209 calls)

     General routines
     calbec       :      0.01s CPU      0.01s WALL (     259 calls)
     fft          :      0.02s CPU      0.02s WALL (      34 calls)
     fftw         :      1.04s CPU      1.05s WALL (    1944 calls)
     davcio       :      0.00s CPU      0.00s WALL (      10 calls)

     Parallel routines
     fft_scatter  :      0.02s CPU      0.04s WALL (    1978 calls)

     PWSCF        :     1.42s CPU         1.44s WALL


   This run was terminated on:  12:52:21  22Jun2018            

=------------------------------------------------------------------------------=
   JOB DONE.
=------------------------------------------------------------------------------=
