
     Program PWSCF v.6.0 (svn rev. 13079) starts on 16Apr2018 at 16:28:23 

     This program is part of the open-source Quantum ESPRESSO suite
     for quantum simulation of materials; please cite
         "P. Giannozzi et al., J. Phys.:Condens. Matter 21 395502 (2009);
          URL http://www.quantum-espresso.org", 
     in publications or presentations arising from this work. More details at
     http://www.quantum-espresso.org/quote

     Parallel version (MPI), running on     1 processors
     Waiting for input...
     Reading input from standard input
     Message from routine read_cards :
     DEPRECATED: no units specified in ATOMIC_POSITIONS card
     Message from routine read_cards :
     ATOMIC_POSITIONS: units set to alat

     Current dimensions of program PWSCF are:
     Max number of different atomic species (ntypx) = 10
     Max number of k-points (npk) =  40000
     Max angular momentum in pseudopotentials (lmaxx) =  3

     Subspace diagonalization in iterative solution of the eigenvalue problem:
     a serial algorithm will be used


     G-vector sticks info
     --------------------
     sticks:   dense  smooth     PW     G-vecs:    dense   smooth      PW
     Sum         139     139     55                 1067     1067     283



     bravais-lattice index     =            2
     lattice parameter (alat)  =       7.5000  a.u.
     unit-cell volume          =     105.4688 (a.u.)^3
     number of atoms/cell      =            1
     number of atomic types    =            1
     number of electrons       =         3.00
     number of Kohn-Sham states=            6
     kinetic-energy cutoff     =      18.0000  Ry
     charge density cutoff     =      72.0000  Ry
     convergence threshold     =      1.0E-06
     mixing beta               =       0.7000
     number of iterations used =            8  plain     mixing
     Exchange-correlation      =  SLA  PZ   NOGX NOGC ( 1  1  0  0 0 0)

     celldm(1)=   7.500000  celldm(2)=   0.000000  celldm(3)=   0.000000
     celldm(4)=   0.000000  celldm(5)=   0.000000  celldm(6)=   0.000000

     crystal axes: (cart. coord. in units of alat)
               a(1) = (  -0.500000   0.000000   0.500000 )  
               a(2) = (   0.000000   0.500000   0.500000 )  
               a(3) = (  -0.500000   0.500000   0.000000 )  

     reciprocal axes: (cart. coord. in units 2 pi/alat)
               b(1) = ( -1.000000 -1.000000  1.000000 )  
               b(2) = (  1.000000  1.000000  1.000000 )  
               b(3) = ( -1.000000  1.000000 -1.000000 )  


     PseudoPot. # 1 for Al read from file:
     ../../../PP/Al.pz-vbc.UPF
     MD5 check sum: f06ceae8da0fe5c02c98e3688433298c
     Pseudo is Norm-conserving, Zval =  3.0
     Generated by new atomic code, or converted to UPF format
     Using radial grid of  171 points,  2 beta functions with: 
                l(1) =   0
                l(2) =   1

     atomic species   valence    mass     pseudopotential
        Al             3.00    26.98000     Al( 1.00)

     48 Sym. Ops., with inversion, found



   Cartesian axes

     site n.     atom                  positions (alat units)
         1           Al  tau(   1) = (   0.0000000   0.0000000   0.0000000  )

     number of k points=   120  Marzari-Vanderbilt smearing, width (Ry)=  0.0500

     Number of k-points >= 100: set verbosity='high' to print them.

     Dense  grid:     1067 G-vectors     FFT dimensions: (  15,  15,  15)

     Estimated max dynamical RAM per process >       2.24Mb

     Initial potential from superposition of free atoms

     starting charge    2.99794, renormalised to    3.00000
     Starting wfc are    4 randomized atomic wfcs +    2 random wfc

     total cpu time spent up to now is        0.1 secs

     per-process dynamical memory:     6.2 Mb

     Self-consistent Calculation

     iteration #  1     ecut=    18.00 Ry     beta=0.70
     Davidson diagonalization with overlap
     ethr =  1.00E-02,  avg # of iterations =  4.5

     Threshold (ethr) on eigenvalues was too large:
     Diagonalizing with lowered threshold

     Davidson diagonalization with overlap
     ethr =  1.93E-04,  avg # of iterations =  1.4

     total cpu time spent up to now is        0.7 secs

     total energy              =      -4.18876989 Ry
     Harris-Foulkes estimate   =      -4.18955221 Ry
     estimated scf accuracy    <       0.00578182 Ry

     iteration #  2     ecut=    18.00 Ry     beta=0.70
     Davidson diagonalization with overlap
     ethr =  1.93E-04,  avg # of iterations =  1.0

     total cpu time spent up to now is        0.9 secs

     total energy              =      -4.18876941 Ry
     Harris-Foulkes estimate   =      -4.18879475 Ry
     estimated scf accuracy    <       0.00044748 Ry

     iteration #  3     ecut=    18.00 Ry     beta=0.70
     Davidson diagonalization with overlap
     ethr =  1.49E-05,  avg # of iterations =  1.5

     total cpu time spent up to now is        1.0 secs

     End of self-consistent calculation

     Number of k-points >= 100: set verbosity='high' to print the bands.

     the Fermi energy is     8.3049 ev

!    total energy              =      -4.18877242 Ry
     Harris-Foulkes estimate   =      -4.18877232 Ry
     estimated scf accuracy    <       0.00000031 Ry

     The total energy is the sum of the following terms:

     one-electron contribution =       2.93798587 Ry
     hartree contribution      =       0.00977251 Ry
     xc contribution           =      -1.63465608 Ry
     ewald contribution        =      -5.50183451 Ry
     smearing contrib. (-TS)   =      -0.00004020 Ry

     convergence has been achieved in   3 iterations

     Forces acting on atoms (Ry/au):

     atom    1 type  1   force =     0.00000000    0.00000000    0.00000000

     Total force =     0.000000     Total SCF correction =     0.000000


     entering subroutine stress ...

          total   stress  (Ry/bohr**3)                   (kbar)     P=   -9.82
  -0.00006678   0.00000000   0.00000000         -9.82      0.00      0.00
   0.00000000  -0.00006678  -0.00000000          0.00     -9.82     -0.00
   0.00000000  -0.00000000  -0.00006678          0.00     -0.00     -9.82


     Writing output data file aluminium.save

     init_run     :      0.08s CPU      0.09s WALL (       1 calls)
     electrons    :      0.78s CPU      0.87s WALL (       1 calls)
     forces       :      0.01s CPU      0.01s WALL (       1 calls)
     stress       :      0.07s CPU      0.07s WALL (       1 calls)

     Called by init_run:
     wfcinit      :      0.07s CPU      0.08s WALL (       1 calls)
     potinit      :      0.00s CPU      0.00s WALL (       1 calls)

     Called by electrons:
     c_bands      :      0.69s CPU      0.77s WALL (       4 calls)
     sum_band     :      0.09s CPU      0.09s WALL (       4 calls)
     v_of_rho     :      0.00s CPU      0.00s WALL (       4 calls)
     mix_rho      :      0.00s CPU      0.00s WALL (       4 calls)

     Called by c_bands:
     init_us_2    :      0.04s CPU      0.05s WALL (    1320 calls)
     cegterg      :      0.67s CPU      0.73s WALL (     480 calls)

     Called by sum_band:

     Called by *egterg:
     h_psi        :      0.44s CPU      0.52s WALL (    1596 calls)
     g_psi        :      0.00s CPU      0.01s WALL (     996 calls)
     cdiaghg      :      0.12s CPU      0.13s WALL (    1356 calls)

     Called by h_psi:
     h_psi:pot    :      0.43s CPU      0.51s WALL (    1596 calls)
     h_psi:calbec :      0.02s CPU      0.02s WALL (    1596 calls)
     vloc_psi     :      0.38s CPU      0.47s WALL (    1596 calls)
     add_vuspsi   :      0.02s CPU      0.01s WALL (    1596 calls)

     General routines
     calbec       :      0.02s CPU      0.02s WALL (    2196 calls)
     fft          :      0.00s CPU      0.00s WALL (      22 calls)
     fftw         :      0.33s CPU      0.44s WALL (   19076 calls)
     davcio       :      0.00s CPU      0.00s WALL (     120 calls)

     Parallel routines
     fft_scatter  :      0.08s CPU      0.07s WALL (   19098 calls)

     PWSCF        :     1.18s CPU         1.31s WALL


   This run was terminated on:  16:28:24  16Apr2018            

=------------------------------------------------------------------------------=
   JOB DONE.
=------------------------------------------------------------------------------=
