
     Program PWSCF v.6.0 (svn rev. 13079) starts on 16Apr2018 at 16:28:21 

     This program is part of the open-source Quantum ESPRESSO suite
     for quantum simulation of materials; please cite
         "P. Giannozzi et al., J. Phys.:Condens. Matter 21 395502 (2009);
          URL http://www.quantum-espresso.org", 
     in publications or presentations arising from this work. More details at
     http://www.quantum-espresso.org/quote

     Parallel version (MPI), running on     1 processors
     Waiting for input...
     Reading input from standard input
     Message from routine read_cards :
     DEPRECATED: no units specified in ATOMIC_POSITIONS card
     Message from routine read_cards :
     ATOMIC_POSITIONS: units set to alat

     Current dimensions of program PWSCF are:
     Max number of different atomic species (ntypx) = 10
     Max number of k-points (npk) =  40000
     Max angular momentum in pseudopotentials (lmaxx) =  3

     Subspace diagonalization in iterative solution of the eigenvalue problem:
     a serial algorithm will be used


     G-vector sticks info
     --------------------
     sticks:   dense  smooth     PW     G-vecs:    dense   smooth      PW
     Sum         151     151     55                 1243     1243     283



     bravais-lattice index     =            2
     lattice parameter (alat)  =       7.5000  a.u.
     unit-cell volume          =     105.4688 (a.u.)^3
     number of atoms/cell      =            1
     number of atomic types    =            1
     number of electrons       =         3.00
     number of Kohn-Sham states=            6
     kinetic-energy cutoff     =      19.0000  Ry
     charge density cutoff     =      76.0000  Ry
     convergence threshold     =      1.0E-06
     mixing beta               =       0.7000
     number of iterations used =            8  plain     mixing
     Exchange-correlation      =  SLA  PZ   NOGX NOGC ( 1  1  0  0 0 0)

     celldm(1)=   7.500000  celldm(2)=   0.000000  celldm(3)=   0.000000
     celldm(4)=   0.000000  celldm(5)=   0.000000  celldm(6)=   0.000000

     crystal axes: (cart. coord. in units of alat)
               a(1) = (  -0.500000   0.000000   0.500000 )  
               a(2) = (   0.000000   0.500000   0.500000 )  
               a(3) = (  -0.500000   0.500000   0.000000 )  

     reciprocal axes: (cart. coord. in units 2 pi/alat)
               b(1) = ( -1.000000 -1.000000  1.000000 )  
               b(2) = (  1.000000  1.000000  1.000000 )  
               b(3) = ( -1.000000  1.000000 -1.000000 )  


     PseudoPot. # 1 for Al read from file:
     ../../../PP/Al.pz-vbc.UPF
     MD5 check sum: f06ceae8da0fe5c02c98e3688433298c
     Pseudo is Norm-conserving, Zval =  3.0
     Generated by new atomic code, or converted to UPF format
     Using radial grid of  171 points,  2 beta functions with: 
                l(1) =   0
                l(2) =   1

     atomic species   valence    mass     pseudopotential
        Al             3.00    26.98000     Al( 1.00)

     48 Sym. Ops., with inversion, found



   Cartesian axes

     site n.     atom                  positions (alat units)
         1           Al  tau(   1) = (   0.0000000   0.0000000   0.0000000  )

     number of k points=    47  Marzari-Vanderbilt smearing, width (Ry)=  0.0500
                       cart. coord. in units 2pi/alat
        k(    1) = (   0.0000000   0.0000000   0.0000000), wk =   0.0020000
        k(    2) = (  -0.1000000   0.1000000  -0.1000000), wk =   0.0160000
        k(    3) = (  -0.2000000   0.2000000  -0.2000000), wk =   0.0160000
        k(    4) = (  -0.3000000   0.3000000  -0.3000000), wk =   0.0160000
        k(    5) = (  -0.4000000   0.4000000  -0.4000000), wk =   0.0160000
        k(    6) = (   0.5000000  -0.5000000   0.5000000), wk =   0.0080000
        k(    7) = (   0.0000000   0.2000000   0.0000000), wk =   0.0120000
        k(    8) = (  -0.1000000   0.3000000  -0.1000000), wk =   0.0480000
        k(    9) = (  -0.2000000   0.4000000  -0.2000000), wk =   0.0480000
        k(   10) = (  -0.3000000   0.5000000  -0.3000000), wk =   0.0480000
        k(   11) = (   0.6000000  -0.4000000   0.6000000), wk =   0.0480000
        k(   12) = (   0.5000000  -0.3000000   0.5000000), wk =   0.0480000
        k(   13) = (   0.4000000  -0.2000000   0.4000000), wk =   0.0480000
        k(   14) = (   0.3000000  -0.1000000   0.3000000), wk =   0.0480000
        k(   15) = (   0.2000000   0.0000000   0.2000000), wk =   0.0240000
        k(   16) = (   0.0000000   0.4000000   0.0000000), wk =   0.0120000
        k(   17) = (  -0.1000000   0.5000000  -0.1000000), wk =   0.0480000
        k(   18) = (  -0.2000000   0.6000000  -0.2000000), wk =   0.0480000
        k(   19) = (   0.7000000  -0.3000000   0.7000000), wk =   0.0480000
        k(   20) = (   0.6000000  -0.2000000   0.6000000), wk =   0.0480000
        k(   21) = (   0.5000000  -0.1000000   0.5000000), wk =   0.0480000
        k(   22) = (   0.4000000   0.0000000   0.4000000), wk =   0.0240000
        k(   23) = (   0.0000000   0.6000000   0.0000000), wk =   0.0120000
        k(   24) = (  -0.1000000   0.7000000  -0.1000000), wk =   0.0480000
        k(   25) = (   0.8000000  -0.2000000   0.8000000), wk =   0.0480000
        k(   26) = (   0.7000000  -0.1000000   0.7000000), wk =   0.0480000
        k(   27) = (   0.6000000  -0.0000000   0.6000000), wk =   0.0240000
        k(   28) = (   0.0000000   0.8000000   0.0000000), wk =   0.0120000
        k(   29) = (   0.9000000  -0.1000000   0.9000000), wk =   0.0480000
        k(   30) = (   0.8000000   0.0000000   0.8000000), wk =   0.0240000
        k(   31) = (   0.0000000  -1.0000000   0.0000000), wk =   0.0060000
        k(   32) = (  -0.2000000   0.4000000   0.0000000), wk =   0.0480000
        k(   33) = (  -0.3000000   0.5000000  -0.1000000), wk =   0.0960000
        k(   34) = (   0.6000000  -0.4000000   0.8000000), wk =   0.0960000
        k(   35) = (   0.5000000  -0.3000000   0.7000000), wk =   0.0480000
        k(   36) = (  -0.2000000   0.6000000   0.0000000), wk =   0.0480000
        k(   37) = (   0.7000000  -0.3000000   0.9000000), wk =   0.0960000
        k(   38) = (   0.6000000  -0.2000000   0.8000000), wk =   0.0960000
        k(   39) = (   0.5000000  -0.1000000   0.7000000), wk =   0.0960000
        k(   40) = (   0.4000000   0.0000000   0.6000000), wk =   0.0480000
        k(   41) = (   0.8000000  -0.2000000   1.0000000), wk =   0.0480000
        k(   42) = (   0.7000000  -0.1000000   0.9000000), wk =   0.0960000
        k(   43) = (   0.6000000   0.0000000   0.8000000), wk =   0.0480000
        k(   44) = (  -0.2000000  -1.0000000   0.0000000), wk =   0.0240000
        k(   45) = (   0.6000000  -0.2000000   1.0000000), wk =   0.0480000
        k(   46) = (   0.5000000  -0.1000000   0.9000000), wk =   0.0480000
        k(   47) = (  -0.4000000  -1.0000000   0.0000000), wk =   0.0240000

     Dense  grid:     1243 G-vectors     FFT dimensions: (  15,  15,  15)

     Estimated max dynamical RAM per process >       1.46Mb

     Initial potential from superposition of free atoms

     starting charge    2.99794, renormalised to    3.00000
     Starting wfc are    4 randomized atomic wfcs +    2 random wfc

     total cpu time spent up to now is        0.1 secs

     per-process dynamical memory:     5.2 Mb

     Self-consistent Calculation

     iteration #  1     ecut=    19.00 Ry     beta=0.70
     Davidson diagonalization with overlap
     ethr =  1.00E-02,  avg # of iterations =  4.4

     Threshold (ethr) on eigenvalues was too large:
     Diagonalizing with lowered threshold

     Davidson diagonalization with overlap
     ethr =  1.92E-04,  avg # of iterations =  1.4

     total cpu time spent up to now is        0.3 secs

     total energy              =      -4.18874286 Ry
     Harris-Foulkes estimate   =      -4.18953013 Ry
     estimated scf accuracy    <       0.00575938 Ry

     iteration #  2     ecut=    19.00 Ry     beta=0.70
     Davidson diagonalization with overlap
     ethr =  1.92E-04,  avg # of iterations =  1.0

     total cpu time spent up to now is        0.4 secs

     total energy              =      -4.18874421 Ry
     Harris-Foulkes estimate   =      -4.18876868 Ry
     estimated scf accuracy    <       0.00044417 Ry

     iteration #  3     ecut=    19.00 Ry     beta=0.70
     Davidson diagonalization with overlap
     ethr =  1.48E-05,  avg # of iterations =  1.5

     total cpu time spent up to now is        0.5 secs

     End of self-consistent calculation

          k = 0.0000 0.0000 0.0000 (   169 PWs)   bands (ev):

    -3.1931  21.1677  21.1677  22.5359  22.5359  22.5359

          k =-0.1000 0.1000-0.1000 (   153 PWs)   bands (ev):

    -2.9082  17.7617  20.3937  20.3941  23.2881  23.7323

          k =-0.2000 0.2000-0.2000 (   150 PWs)   bands (ev):

    -2.0585  13.7004  19.6149  19.6149  23.0529  24.2221

          k =-0.3000 0.3000-0.3000 (   150 PWs)   bands (ev):

    -0.6587   9.9503  19.2585  19.2585  22.4378  22.4379

          k =-0.4000 0.4000-0.4000 (   147 PWs)   bands (ev):

     1.2687   6.6058  19.3576  19.3576  20.9511  20.9511

          k = 0.5000-0.5000 0.5000 (   156 PWs)   bands (ev):

     3.5858   3.8139  19.8823  19.8823  19.9568  19.9568

          k = 0.0000 0.2000 0.0000 (   153 PWs)   bands (ev):

    -2.8134  18.9631  18.9631  19.2207  21.8095  24.6005

          k =-0.1000 0.3000-0.1000 (   152 PWs)   bands (ev):

    -2.1525  15.1849  17.9726  19.4029  21.8550  22.7050

          k =-0.2000 0.4000-0.2000 (   147 PWs)   bands (ev):

    -0.9368  11.3632  17.4450  19.0743  19.8229  24.7058

          k =-0.3000 0.5000-0.3000 (   148 PWs)   bands (ev):

     0.8131   7.8966  17.3803  18.0821  19.1176  23.7348

          k = 0.6000-0.4000 0.6000 (   147 PWs)   bands (ev):

     3.0669   4.8596  16.8768  17.7806  19.5601  22.5597

          k = 0.5000-0.3000 0.5000 (   151 PWs)   bands (ev):

     2.2627   5.8185  16.1469  18.6485  20.4887  21.8443

          k = 0.4000-0.2000 0.4000 (   149 PWs)   bands (ev):

     0.1719   9.0007  15.9087  19.9762  21.6012  21.8819

          k = 0.3000-0.1000 0.3000 (   148 PWs)   bands (ev):

    -1.4026  12.5703  16.1814  21.5239  22.0042  23.6834

          k = 0.2000 0.0000 0.2000 (   149 PWs)   bands (ev):

    -2.4352  16.1052  17.2836  21.9076  22.8437  24.0804

          k = 0.0000 0.4000 0.0000 (   149 PWs)   bands (ev):

    -1.6828  16.7789  16.8101  16.8101  19.2270  20.3477

          k =-0.1000 0.5000-0.1000 (   147 PWs)   bands (ev):

    -0.6581  13.1757  16.1187  16.8088  17.5702  21.0511

          k =-0.2000 0.6000-0.2000 (   147 PWs)   bands (ev):

     0.9043   9.6584  14.9478  15.8938  17.5987  23.5712

          k = 0.7000-0.3000 0.7000 (   147 PWs)   bands (ev):

     2.9767   6.5099  13.5481  16.1337  17.9407  25.6949

          k = 0.6000-0.2000 0.6000 (   149 PWs)   bands (ev):

     3.7740   5.5492  12.6510  16.8403  18.7547  24.8338

          k = 0.5000-0.1000 0.5000 (   148 PWs)   bands (ev):

     1.5407   8.5021  12.3099  18.0171  20.0456  24.4263

          k = 0.4000 0.0000 0.4000 (   144 PWs)   bands (ev):

    -0.1962  11.3671  12.9962  19.6617  21.7610  24.1128

          k = 0.0000 0.6000 0.0000 (   149 PWs)   bands (ev):

     0.1723  14.2669  14.9508  15.2686  15.2686  18.9602

          k =-0.1000 0.7000-0.1000 (   145 PWs)   bands (ev):

     1.5393  11.7374  12.2653  14.8878  16.1620  19.8986

          k = 0.8000-0.2000 0.8000 (   145 PWs)   bands (ev):

     3.4139   8.6079  10.6249  14.9700  16.5669  22.7387

          k = 0.7000-0.1000 0.7000 (   148 PWs)   bands (ev):

     5.6058   5.9323   9.5754  15.5155  17.2736  26.1892

          k = 0.6000-0.0000 0.6000 (   142 PWs)   bands (ev):

     3.4231   7.9933   9.5958  16.5312  18.4433  27.7984

          k = 0.0000 0.8000 0.0000 (   146 PWs)   bands (ev):

     2.7029   9.8759  13.8401  14.3501  14.3501  18.0202

          k = 0.9000-0.1000 0.9000 (   144 PWs)   bands (ev):

     4.3478   8.1106  11.1711  14.2754  15.4582  19.2855

          k = 0.8000 0.0000 0.8000 (   146 PWs)   bands (ev):

     5.9859   7.2879   8.4139  14.6627  16.2129  22.4490

          k = 0.0000-1.0000 0.0000 (   150 PWs)   bands (ev):

     5.3204   6.6398  13.4682  14.0436  14.0436  17.6898

          k =-0.2000 0.4000 0.0000 (   149 PWs)   bands (ev):

    -1.3091  13.7399  15.1650  19.5344  20.4899  22.3473

          k =-0.3000 0.5000-0.1000 (   148 PWs)   bands (ev):

     0.0802  10.5420  14.2619  17.5256  20.8355  23.9071

          k = 0.6000-0.4000 0.8000 (   148 PWs)   bands (ev):

     1.9922   7.2793  14.2709  15.9944  21.0357  22.7831

          k = 0.5000-0.3000 0.7000 (   146 PWs)   bands (ev):

     4.2637   4.5478  14.6068  15.1583  21.4437  21.9353

          k =-0.2000 0.6000 0.0000 (   146 PWs)   bands (ev):

     0.5390  12.0434  13.4743  14.7516  18.8666  21.0746

          k = 0.7000-0.3000 0.9000 (   147 PWs)   bands (ev):

     2.2606   9.1722  12.5794  13.3062  19.6098  23.2615

          k = 0.6000-0.2000 0.8000 (   146 PWs)   bands (ev):

     4.4661   6.2435  11.5900  13.4088  20.1779  24.8700

          k = 0.5000-0.1000 0.7000 (   147 PWs)   bands (ev):

     3.6866   7.1311  10.9339  14.2756  21.1185  24.1695

          k = 0.4000 0.0000 0.6000 (   144 PWs)   bands (ev):

     1.6311   9.6758  11.3092  15.6634  22.4419  23.2698

          k = 0.8000-0.2000 1.0000 (   143 PWs)   bands (ev):

     3.0595  10.1841  11.0240  12.6913  17.8663  20.2179

          k = 0.7000-0.1000 0.9000 (   149 PWs)   bands (ev):

     5.0402   8.3579   8.9718  12.3675  18.9602  22.7289

          k = 0.6000 0.0000 0.8000 (   148 PWs)   bands (ev):

     5.8513   6.9869   8.5310  13.0452  19.8663  26.1584

          k =-0.2000-1.0000 0.0000 (   144 PWs)   bands (ev):

     5.6538   6.9983  10.6835  12.3358  17.5308  19.9184

          k = 0.6000-0.2000 1.0000 (   150 PWs)   bands (ev):

     4.1199   8.6629  10.1247  11.5220  22.3090  23.6539

          k = 0.5000-0.1000 0.9000 (   150 PWs)   bands (ev):

     6.2735   6.5771   9.8460  10.7588  23.2724  23.8259

          k =-0.4000-1.0000 0.0000 (   150 PWs)   bands (ev):

     6.6526   7.9844   8.3263  10.1674  21.9795  23.5977

     the Fermi energy is     8.3878 ev

!    total energy              =      -4.18874734 Ry
     Harris-Foulkes estimate   =      -4.18874723 Ry
     estimated scf accuracy    <       0.00000033 Ry

     The total energy is the sum of the following terms:

     one-electron contribution =       2.93951715 Ry
     hartree contribution      =       0.00967277 Ry
     xc contribution           =      -1.63459394 Ry
     ewald contribution        =      -5.50183451 Ry
     smearing contrib. (-TS)   =      -0.00150880 Ry

     convergence has been achieved in   3 iterations

     Forces acting on atoms (Ry/au):

     atom    1 type  1   force =     0.00000000    0.00000000    0.00000000

     Total force =     0.000000     Total SCF correction =     0.000000


     entering subroutine stress ...

          total   stress  (Ry/bohr**3)                   (kbar)     P=   -8.09
  -0.00005499   0.00000000   0.00000000         -8.09      0.00      0.00
   0.00000000  -0.00005499  -0.00000000          0.00     -8.09     -0.00
   0.00000000  -0.00000000  -0.00005499          0.00     -0.00     -8.09


     Writing output data file aluminium.save

     init_run     :      0.04s CPU      0.05s WALL (       1 calls)
     electrons    :      0.39s CPU      0.41s WALL (       1 calls)
     forces       :      0.00s CPU      0.01s WALL (       1 calls)
     stress       :      0.03s CPU      0.04s WALL (       1 calls)

     Called by init_run:
     wfcinit      :      0.03s CPU      0.03s WALL (       1 calls)
     potinit      :      0.00s CPU      0.00s WALL (       1 calls)

     Called by electrons:
     c_bands      :      0.34s CPU      0.35s WALL (       4 calls)
     sum_band     :      0.05s CPU      0.05s WALL (       4 calls)
     v_of_rho     :      0.00s CPU      0.00s WALL (       4 calls)
     mix_rho      :      0.00s CPU      0.00s WALL (       4 calls)

     Called by c_bands:
     init_us_2    :      0.02s CPU      0.02s WALL (     517 calls)
     cegterg      :      0.30s CPU      0.33s WALL (     188 calls)

     Called by sum_band:

     Called by *egterg:
     h_psi        :      0.23s CPU      0.23s WALL (     625 calls)
     g_psi        :      0.00s CPU      0.00s WALL (     390 calls)
     cdiaghg      :      0.02s CPU      0.05s WALL (     531 calls)

     Called by h_psi:
     h_psi:pot    :      0.22s CPU      0.23s WALL (     625 calls)
     h_psi:calbec :      0.02s CPU      0.01s WALL (     625 calls)
     vloc_psi     :      0.20s CPU      0.21s WALL (     625 calls)
     add_vuspsi   :      0.00s CPU      0.01s WALL (     625 calls)

     General routines
     calbec       :      0.02s CPU      0.01s WALL (     860 calls)
     fft          :      0.00s CPU      0.00s WALL (      22 calls)
     fftw         :      0.18s CPU      0.20s WALL (    7474 calls)
     davcio       :      0.00s CPU      0.00s WALL (      47 calls)

     Parallel routines
     fft_scatter  :      0.03s CPU      0.03s WALL (    7496 calls)

     PWSCF        :     0.59s CPU         0.67s WALL


   This run was terminated on:  16:28:22  16Apr2018            

=------------------------------------------------------------------------------=
   JOB DONE.
=------------------------------------------------------------------------------=
