
     Program PWSCF v.6.0 (svn rev. 13079) starts on 16Apr2018 at 16:28:28 

     This program is part of the open-source Quantum ESPRESSO suite
     for quantum simulation of materials; please cite
         "P. Giannozzi et al., J. Phys.:Condens. Matter 21 395502 (2009);
          URL http://www.quantum-espresso.org", 
     in publications or presentations arising from this work. More details at
     http://www.quantum-espresso.org/quote

     Parallel version (MPI), running on     1 processors
     Waiting for input...
     Reading input from standard input
     Message from routine read_cards :
     DEPRECATED: no units specified in ATOMIC_POSITIONS card
     Message from routine read_cards :
     ATOMIC_POSITIONS: units set to alat

     Current dimensions of program PWSCF are:
     Max number of different atomic species (ntypx) = 10
     Max number of k-points (npk) =  40000
     Max angular momentum in pseudopotentials (lmaxx) =  3

     Subspace diagonalization in iterative solution of the eigenvalue problem:
     a serial algorithm will be used


     G-vector sticks info
     --------------------
     sticks:   dense  smooth     PW     G-vecs:    dense   smooth      PW
     Sum         139     139     55                 1067     1067     283



     bravais-lattice index     =            2
     lattice parameter (alat)  =       7.5000  a.u.
     unit-cell volume          =     105.4688 (a.u.)^3
     number of atoms/cell      =            1
     number of atomic types    =            1
     number of electrons       =         3.00
     number of Kohn-Sham states=            6
     kinetic-energy cutoff     =      18.0000  Ry
     charge density cutoff     =      72.0000  Ry
     convergence threshold     =      1.0E-06
     mixing beta               =       0.7000
     number of iterations used =            8  plain     mixing
     Exchange-correlation      =  SLA  PZ   NOGX NOGC ( 1  1  0  0 0 0)

     celldm(1)=   7.500000  celldm(2)=   0.000000  celldm(3)=   0.000000
     celldm(4)=   0.000000  celldm(5)=   0.000000  celldm(6)=   0.000000

     crystal axes: (cart. coord. in units of alat)
               a(1) = (  -0.500000   0.000000   0.500000 )  
               a(2) = (   0.000000   0.500000   0.500000 )  
               a(3) = (  -0.500000   0.500000   0.000000 )  

     reciprocal axes: (cart. coord. in units 2 pi/alat)
               b(1) = ( -1.000000 -1.000000  1.000000 )  
               b(2) = (  1.000000  1.000000  1.000000 )  
               b(3) = ( -1.000000  1.000000 -1.000000 )  


     PseudoPot. # 1 for Al read from file:
     ../../../PP/Al.pz-vbc.UPF
     MD5 check sum: f06ceae8da0fe5c02c98e3688433298c
     Pseudo is Norm-conserving, Zval =  3.0
     Generated by new atomic code, or converted to UPF format
     Using radial grid of  171 points,  2 beta functions with: 
                l(1) =   0
                l(2) =   1

     atomic species   valence    mass     pseudopotential
        Al             3.00    26.98000     Al( 1.00)

     48 Sym. Ops., with inversion, found



   Cartesian axes

     site n.     atom                  positions (alat units)
         1           Al  tau(   1) = (   0.0000000   0.0000000   0.0000000  )

     number of k points=   256  Marzari-Vanderbilt smearing, width (Ry)=  0.0500

     Number of k-points >= 100: set verbosity='high' to print them.

     Dense  grid:     1067 G-vectors     FFT dimensions: (  15,  15,  15)

     Estimated max dynamical RAM per process >       3.94Mb

     Initial potential from superposition of free atoms

     starting charge    2.99794, renormalised to    3.00000
     Starting wfc are    4 randomized atomic wfcs +    2 random wfc

     total cpu time spent up to now is        0.2 secs

     per-process dynamical memory:     8.1 Mb

     Self-consistent Calculation

     iteration #  1     ecut=    18.00 Ry     beta=0.70
     Davidson diagonalization with overlap
     ethr =  1.00E-02,  avg # of iterations =  4.4

     Threshold (ethr) on eigenvalues was too large:
     Diagonalizing with lowered threshold

     Davidson diagonalization with overlap
     ethr =  1.93E-04,  avg # of iterations =  1.3

     total cpu time spent up to now is        1.4 secs

     total energy              =      -4.18870744 Ry
     Harris-Foulkes estimate   =      -4.18948837 Ry
     estimated scf accuracy    <       0.00578952 Ry

     iteration #  2     ecut=    18.00 Ry     beta=0.70
     Davidson diagonalization with overlap
     ethr =  1.93E-04,  avg # of iterations =  1.0

     total cpu time spent up to now is        1.8 secs

     total energy              =      -4.18870694 Ry
     Harris-Foulkes estimate   =      -4.18873221 Ry
     estimated scf accuracy    <       0.00044832 Ry

     iteration #  3     ecut=    18.00 Ry     beta=0.70
     Davidson diagonalization with overlap
     ethr =  1.49E-05,  avg # of iterations =  1.3

     total cpu time spent up to now is        2.2 secs

     End of self-consistent calculation

     Number of k-points >= 100: set verbosity='high' to print the bands.

     the Fermi energy is     8.2872 ev

!    total energy              =      -4.18870993 Ry
     Harris-Foulkes estimate   =      -4.18870983 Ry
     estimated scf accuracy    <       0.00000031 Ry

     The total energy is the sum of the following terms:

     one-electron contribution =       2.93804314 Ry
     hartree contribution      =       0.00979553 Ry
     xc contribution           =      -1.63467467 Ry
     ewald contribution        =      -5.50183451 Ry
     smearing contrib. (-TS)   =      -0.00003941 Ry

     convergence has been achieved in   3 iterations

     Forces acting on atoms (Ry/au):

     atom    1 type  1   force =     0.00000000    0.00000000    0.00000000

     Total force =     0.000000     Total SCF correction =     0.000000


     entering subroutine stress ...

          total   stress  (Ry/bohr**3)                   (kbar)     P=   -9.86
  -0.00006703  -0.00000000  -0.00000000         -9.86     -0.00     -0.00
  -0.00000000  -0.00006703   0.00000000         -0.00     -9.86      0.00
  -0.00000000   0.00000000  -0.00006703         -0.00      0.00     -9.86


     Writing output data file aluminium.save

     init_run     :      0.16s CPU      0.18s WALL (       1 calls)
     electrons    :      1.88s CPU      1.99s WALL (       1 calls)
     forces       :      0.02s CPU      0.02s WALL (       1 calls)
     stress       :      0.15s CPU      0.15s WALL (       1 calls)

     Called by init_run:
     wfcinit      :      0.15s CPU      0.16s WALL (       1 calls)
     potinit      :      0.00s CPU      0.00s WALL (       1 calls)

     Called by electrons:
     c_bands      :      1.67s CPU      1.74s WALL (       4 calls)
     sum_band     :      0.21s CPU      0.24s WALL (       4 calls)
     v_of_rho     :      0.00s CPU      0.00s WALL (       4 calls)
     mix_rho      :      0.00s CPU      0.00s WALL (       4 calls)

     Called by c_bands:
     init_us_2    :      0.11s CPU      0.10s WALL (    2816 calls)
     cegterg      :      1.60s CPU      1.66s WALL (    1024 calls)

     Called by sum_band:

     Called by *egterg:
     h_psi        :      1.16s CPU      1.21s WALL (    3335 calls)
     g_psi        :      0.00s CPU      0.01s WALL (    2055 calls)
     cdiaghg      :      0.26s CPU      0.25s WALL (    2823 calls)

     Called by h_psi:
     h_psi:pot    :      1.15s CPU      1.20s WALL (    3335 calls)
     h_psi:calbec :      0.05s CPU      0.04s WALL (    3335 calls)
     vloc_psi     :      1.05s CPU      1.11s WALL (    3335 calls)
     add_vuspsi   :      0.05s CPU      0.03s WALL (    3335 calls)

     General routines
     calbec       :      0.05s CPU      0.05s WALL (    4615 calls)
     fft          :      0.00s CPU      0.00s WALL (      22 calls)
     fftw         :      0.96s CPU      1.04s WALL (   40606 calls)
     davcio       :      0.00s CPU      0.00s WALL (     256 calls)

     Parallel routines
     fft_scatter  :      0.14s CPU      0.15s WALL (   40628 calls)

     PWSCF        :     2.64s CPU         2.78s WALL


   This run was terminated on:  16:28:30  16Apr2018            

=------------------------------------------------------------------------------=
   JOB DONE.
=------------------------------------------------------------------------------=
