
     Program PWSCF v.6.0 (svn rev. 13079) starts on 22Jun2018 at 12:52:21 

     This program is part of the open-source Quantum ESPRESSO suite
     for quantum simulation of materials; please cite
         "P. Giannozzi et al., J. Phys.:Condens. Matter 21 395502 (2009);
          URL http://www.quantum-espresso.org", 
     in publications or presentations arising from this work. More details at
     http://www.quantum-espresso.org/quote

     Parallel version (MPI), running on     1 processors
     Waiting for input...
     Reading input from standard input

     Current dimensions of program PWSCF are:
     Max number of different atomic species (ntypx) = 10
     Max number of k-points (npk) =  40000
     Max angular momentum in pseudopotentials (lmaxx) =  3

     Subspace diagonalization in iterative solution of the eigenvalue problem:
     a serial algorithm will be used


     G-vector sticks info
     --------------------
     sticks:   dense  smooth     PW     G-vecs:    dense   smooth      PW
     Sum         595     595    187                 9721     9721    1687



     bravais-lattice index     =            2
     lattice parameter (alat)  =      10.2000  a.u.
     unit-cell volume          =     265.3020 (a.u.)^3
     number of atoms/cell      =            2
     number of atomic types    =            1
     number of electrons       =         8.00
     number of Kohn-Sham states=            4
     kinetic-energy cutoff     =      41.9170  Ry
     charge density cutoff     =     167.6680  Ry
     convergence threshold     =      1.0E-08
     mixing beta               =       0.7000
     number of iterations used =            8  plain     mixing
     Exchange-correlation      =  SLA  PZ   NOGX NOGC ( 1  1  0  0 0 0)

     celldm(1)=  10.200000  celldm(2)=   0.000000  celldm(3)=   0.000000
     celldm(4)=   0.000000  celldm(5)=   0.000000  celldm(6)=   0.000000

     crystal axes: (cart. coord. in units of alat)
               a(1) = (  -0.500000   0.000000   0.500000 )  
               a(2) = (   0.000000   0.500000   0.500000 )  
               a(3) = (  -0.500000   0.500000   0.000000 )  

     reciprocal axes: (cart. coord. in units 2 pi/alat)
               b(1) = ( -1.000000 -1.000000  1.000000 )  
               b(2) = (  1.000000  1.000000  1.000000 )  
               b(3) = ( -1.000000  1.000000 -1.000000 )  


     PseudoPot. # 1 for Si read from file:
     ../../../PP/Si.pz-vbc.UPF
     MD5 check sum: 6dfa03ddd5817404712e03e4d12deb78
     Pseudo is Norm-conserving, Zval =  4.0
     Generated by new atomic code, or converted to UPF format
     Using radial grid of  431 points,  2 beta functions with: 
                l(1) =   0
                l(2) =   1

     atomic species   valence    mass     pseudopotential
        Si             4.00    28.08600     Si( 1.00)

     24 Sym. Ops. (no inversion) found
          (note: 24 additional sym.ops. were found but ignored
           their fractional translations are incommensurate with FFT grid)


   Cartesian axes

     site n.     atom                  positions (alat units)
         1           Si  tau(   1) = (   0.0000000   0.0000000   0.0000000  )
         2           Si  tau(   2) = (  -0.2500000   0.2500000   0.2500000  )

     number of k points=    10
                       cart. coord. in units 2pi/alat
        k(    1) = (   0.0000000   0.0000000   0.0000000), wk =   0.0160000
        k(    2) = (  -0.2000000   0.2000000  -0.2000000), wk =   0.1280000
        k(    3) = (  -0.4000000   0.4000000  -0.4000000), wk =   0.1280000
        k(    4) = (   0.0000000   0.4000000   0.0000000), wk =   0.0960000
        k(    5) = (  -0.2000000   0.6000000  -0.2000000), wk =   0.3840000
        k(    6) = (   0.6000000  -0.2000000   0.6000000), wk =   0.3840000
        k(    7) = (   0.4000000   0.0000000   0.4000000), wk =   0.1920000
        k(    8) = (   0.0000000   0.8000000   0.0000000), wk =   0.0960000
        k(    9) = (   0.8000000   0.0000000   0.8000000), wk =   0.1920000
        k(   10) = (   0.6000000  -0.2000000   1.0000000), wk =   0.3840000

     Dense  grid:     9721 G-vectors     FFT dimensions: (  30,  30,  30)

     Estimated max dynamical RAM per process >       7.02Mb

     Initial potential from superposition of free atoms

     starting charge    7.99901, renormalised to    8.00000
     Starting wfc are    8 randomized atomic wfcs

     total cpu time spent up to now is        0.2 secs

     per-process dynamical memory:     8.7 Mb

     Self-consistent Calculation

     iteration #  1     ecut=    41.92 Ry     beta=0.70
     Davidson diagonalization with overlap
     ethr =  1.00E-02,  avg # of iterations =  2.0

     Threshold (ethr) on eigenvalues was too large:
     Diagonalizing with lowered threshold

     Davidson diagonalization with overlap
     ethr =  8.25E-04,  avg # of iterations =  1.0

     total cpu time spent up to now is        0.5 secs

     total energy              =     -15.84486556 Ry
     Harris-Foulkes estimate   =     -15.86687885 Ry
     estimated scf accuracy    <       0.06430576 Ry

     iteration #  2     ecut=    41.92 Ry     beta=0.70
     Davidson diagonalization with overlap
     ethr =  8.04E-04,  avg # of iterations =  1.0

     total cpu time spent up to now is        0.7 secs

     total energy              =     -15.84802628 Ry
     Harris-Foulkes estimate   =     -15.84834600 Ry
     estimated scf accuracy    <       0.00225268 Ry

     iteration #  3     ecut=    41.92 Ry     beta=0.70
     Davidson diagonalization with overlap
     ethr =  2.82E-05,  avg # of iterations =  2.1

     total cpu time spent up to now is        0.8 secs

     total energy              =     -15.84842427 Ry
     Harris-Foulkes estimate   =     -15.84845431 Ry
     estimated scf accuracy    <       0.00007354 Ry

     iteration #  4     ecut=    41.92 Ry     beta=0.70
     Davidson diagonalization with overlap
     ethr =  9.19E-07,  avg # of iterations =  2.2

     total cpu time spent up to now is        1.0 secs

     total energy              =     -15.84844473 Ry
     Harris-Foulkes estimate   =     -15.84844858 Ry
     estimated scf accuracy    <       0.00000813 Ry

     iteration #  5     ecut=    41.92 Ry     beta=0.70
     Davidson diagonalization with overlap
     ethr =  1.02E-07,  avg # of iterations =  2.1

     total cpu time spent up to now is        1.2 secs

     total energy              =     -15.84844608 Ry
     Harris-Foulkes estimate   =     -15.84844613 Ry
     estimated scf accuracy    <       0.00000013 Ry

     iteration #  6     ecut=    41.92 Ry     beta=0.70
     Davidson diagonalization with overlap
     ethr =  1.66E-09,  avg # of iterations =  2.4

     total cpu time spent up to now is        1.4 secs

     End of self-consistent calculation

          k = 0.0000 0.0000 0.0000 (  1243 PWs)   bands (ev):

    -5.8091   6.2470   6.2470   6.2470

          k =-0.2000 0.2000-0.2000 (  1215 PWs)   bands (ev):

    -5.2828   3.2199   5.6579   5.6579

          k =-0.4000 0.4000-0.4000 (  1209 PWs)   bands (ev):

    -3.8874  -0.0973   5.1042   5.1042

          k = 0.0000 0.4000 0.0000 (  1219 PWs)   bands (ev):

    -5.1022   3.6525   4.7282   4.7282

          k =-0.2000 0.6000-0.2000 (  1218 PWs)   bands (ev):

    -3.9386   0.9181   3.5757   4.2125

          k = 0.6000-0.2000 0.6000 (  1211 PWs)   bands (ev):

    -3.0244  -0.5163   2.7488   4.5030

          k = 0.4000 0.0000 0.4000 (  1207 PWs)   bands (ev):

    -4.4356   1.7663   3.1723   5.3903

          k = 0.0000 0.8000 0.0000 (  1218 PWs)   bands (ev):

    -3.0512   0.0693   3.5000   3.5000

          k = 0.8000 0.0000 0.8000 (  1214 PWs)   bands (ev):

    -1.8113  -1.2147   2.0733   3.6218

          k = 0.6000-0.2000 1.0000 (  1219 PWs)   bands (ev):

    -2.5950  -0.3182   2.1647   3.1776

     highest occupied level (ev):     6.2470

!    total energy              =     -15.84844612 Ry
     Harris-Foulkes estimate   =     -15.84844612 Ry
     estimated scf accuracy    <          1.8E-09 Ry

     The total energy is the sum of the following terms:

     one-electron contribution =       4.78377476 Ry
     hartree contribution      =       1.08857579 Ry
     xc contribution           =      -4.82103806 Ry
     ewald contribution        =     -16.89975860 Ry

     convergence has been achieved in   6 iterations

     Forces acting on atoms (Ry/au):

     atom    1 type  1   force =    -0.00000000   -0.00000000    0.00000000
     atom    2 type  1   force =     0.00000000    0.00000000   -0.00000000

     Total force =     0.000000     Total SCF correction =     0.000000


     entering subroutine stress ...

          total   stress  (Ry/bohr**3)                   (kbar)     P=    3.50
   0.00002380  -0.00000000  -0.00000000          3.50     -0.00     -0.00
  -0.00000000   0.00002380   0.00000000         -0.00      3.50      0.00
  -0.00000000   0.00000000   0.00002380         -0.00      0.00      3.50


     Writing output data file silicon.save

     init_run     :      0.22s CPU      0.22s WALL (       1 calls)
     electrons    :      1.11s CPU      1.12s WALL (       1 calls)
     forces       :      0.02s CPU      0.02s WALL (       1 calls)
     stress       :      0.05s CPU      0.05s WALL (       1 calls)

     Called by init_run:
     wfcinit      :      0.14s CPU      0.14s WALL (       1 calls)
     potinit      :      0.01s CPU      0.01s WALL (       1 calls)

     Called by electrons:
     c_bands      :      0.91s CPU      0.91s WALL (       7 calls)
     sum_band     :      0.18s CPU      0.18s WALL (       7 calls)
     v_of_rho     :      0.02s CPU      0.02s WALL (       7 calls)
     mix_rho      :      0.00s CPU      0.01s WALL (       7 calls)

     Called by c_bands:
     init_us_2    :      0.03s CPU      0.03s WALL (     170 calls)
     cegterg      :      0.90s CPU      0.90s WALL (      70 calls)

     Called by sum_band:

     Called by *egterg:
     h_psi        :      0.96s CPU      0.97s WALL (     208 calls)
     g_psi        :      0.00s CPU      0.00s WALL (     128 calls)
     cdiaghg      :      0.00s CPU      0.01s WALL (     188 calls)

     Called by h_psi:
     h_psi:pot    :      0.95s CPU      0.96s WALL (     208 calls)
     h_psi:calbec :      0.01s CPU      0.01s WALL (     208 calls)
     vloc_psi     :      0.92s CPU      0.94s WALL (     208 calls)
     add_vuspsi   :      0.02s CPU      0.01s WALL (     208 calls)

     General routines
     calbec       :      0.01s CPU      0.02s WALL (     258 calls)
     fft          :      0.02s CPU      0.03s WALL (      34 calls)
     fftw         :      1.01s CPU      1.04s WALL (    1944 calls)
     davcio       :      0.00s CPU      0.00s WALL (      10 calls)

     Parallel routines
     fft_scatter  :      0.06s CPU      0.04s WALL (    1978 calls)

     PWSCF        :     1.44s CPU         1.46s WALL


   This run was terminated on:  12:52:23  22Jun2018            

=------------------------------------------------------------------------------=
   JOB DONE.
=------------------------------------------------------------------------------=
