
     Program PWSCF v.6.0 (svn rev. 13079) starts on 16Apr2018 at 16: 0:24 

     This program is part of the open-source Quantum ESPRESSO suite
     for quantum simulation of materials; please cite
         "P. Giannozzi et al., J. Phys.:Condens. Matter 21 395502 (2009);
          URL http://www.quantum-espresso.org", 
     in publications or presentations arising from this work. More details at
     http://www.quantum-espresso.org/quote

     Parallel version (MPI), running on     1 processors
     Waiting for input...
     Reading input from standard input

     Current dimensions of program PWSCF are:
     Max number of different atomic species (ntypx) = 10
     Max number of k-points (npk) =  40000
     Max angular momentum in pseudopotentials (lmaxx) =  3

     Subspace diagonalization in iterative solution of the eigenvalue problem:
     a serial algorithm will be used


     G-vector sticks info
     --------------------
     sticks:   dense  smooth     PW     G-vecs:    dense   smooth      PW
     Sum         283     283     91                 3071     3071     609



     bravais-lattice index     =            2
     lattice parameter (alat)  =      10.2000  a.u.
     unit-cell volume          =     265.3020 (a.u.)^3
     number of atoms/cell      =            2
     number of atomic types    =            1
     number of electrons       =         8.00
     number of Kohn-Sham states=            4
     kinetic-energy cutoff     =      19.2610  Ry
     charge density cutoff     =      77.0440  Ry
     convergence threshold     =      1.0E-08
     mixing beta               =       0.7000
     number of iterations used =            8  plain     mixing
     Exchange-correlation      =  SLA  PZ   NOGX NOGC ( 1  1  0  0 0 0)

     celldm(1)=  10.200000  celldm(2)=   0.000000  celldm(3)=   0.000000
     celldm(4)=   0.000000  celldm(5)=   0.000000  celldm(6)=   0.000000

     crystal axes: (cart. coord. in units of alat)
               a(1) = (  -0.500000   0.000000   0.500000 )  
               a(2) = (   0.000000   0.500000   0.500000 )  
               a(3) = (  -0.500000   0.500000   0.000000 )  

     reciprocal axes: (cart. coord. in units 2 pi/alat)
               b(1) = ( -1.000000 -1.000000  1.000000 )  
               b(2) = (  1.000000  1.000000  1.000000 )  
               b(3) = ( -1.000000  1.000000 -1.000000 )  


     PseudoPot. # 1 for Si read from file:
     ../../../PP/Si.pz-vbc.UPF
     MD5 check sum: 6dfa03ddd5817404712e03e4d12deb78
     Pseudo is Norm-conserving, Zval =  4.0
     Generated by new atomic code, or converted to UPF format
     Using radial grid of  431 points,  2 beta functions with: 
                l(1) =   0
                l(2) =   1

     atomic species   valence    mass     pseudopotential
        Si             4.00    28.08600     Si( 1.00)

     48 Sym. Ops., with inversion, found (24 have fractional translation)



   Cartesian axes

     site n.     atom                  positions (alat units)
         1           Si  tau(   1) = (   0.0000000   0.0000000   0.0000000  )
         2           Si  tau(   2) = (  -0.2500000   0.2500000   0.2500000  )

     number of k points=    10
                       cart. coord. in units 2pi/alat
        k(    1) = (   0.0000000   0.0000000   0.0000000), wk =   0.0160000
        k(    2) = (  -0.2000000   0.2000000  -0.2000000), wk =   0.1280000
        k(    3) = (  -0.4000000   0.4000000  -0.4000000), wk =   0.1280000
        k(    4) = (   0.0000000   0.4000000   0.0000000), wk =   0.0960000
        k(    5) = (  -0.2000000   0.6000000  -0.2000000), wk =   0.3840000
        k(    6) = (   0.6000000  -0.2000000   0.6000000), wk =   0.3840000
        k(    7) = (   0.4000000   0.0000000   0.4000000), wk =   0.1920000
        k(    8) = (   0.0000000   0.8000000   0.0000000), wk =   0.0960000
        k(    9) = (   0.8000000   0.0000000   0.8000000), wk =   0.1920000
        k(   10) = (   0.6000000  -0.2000000   1.0000000), wk =   0.3840000

     Dense  grid:     3071 G-vectors     FFT dimensions: (  24,  24,  24)

     Estimated max dynamical RAM per process >       2.58Mb

     Initial potential from superposition of free atoms

     starting charge    7.99901, renormalised to    8.00000
     Starting wfc are    8 randomized atomic wfcs

     total cpu time spent up to now is        0.1 secs

     per-process dynamical memory:     6.2 Mb

     Self-consistent Calculation

     iteration #  1     ecut=    19.26 Ry     beta=0.70
     Davidson diagonalization with overlap
     ethr =  1.00E-02,  avg # of iterations =  2.0

     Threshold (ethr) on eigenvalues was too large:
     Diagonalizing with lowered threshold

     Davidson diagonalization with overlap
     ethr =  8.08E-04,  avg # of iterations =  1.0

     total cpu time spent up to now is        0.1 secs

     total energy              =     -15.83832372 Ry
     Harris-Foulkes estimate   =     -15.86026894 Ry
     estimated scf accuracy    <       0.06391722 Ry

     iteration #  2     ecut=    19.26 Ry     beta=0.70
     Davidson diagonalization with overlap
     ethr =  7.99E-04,  avg # of iterations =  1.0

     total cpu time spent up to now is        0.2 secs

     total energy              =     -15.84148263 Ry
     Harris-Foulkes estimate   =     -15.84180568 Ry
     estimated scf accuracy    <       0.00224371 Ry

     iteration #  3     ecut=    19.26 Ry     beta=0.70
     Davidson diagonalization with overlap
     ethr =  2.80E-05,  avg # of iterations =  2.0

     total cpu time spent up to now is        0.2 secs

     total energy              =     -15.84187646 Ry
     Harris-Foulkes estimate   =     -15.84190614 Ry
     estimated scf accuracy    <       0.00006994 Ry

     iteration #  4     ecut=    19.26 Ry     beta=0.70
     Davidson diagonalization with overlap
     ethr =  8.74E-07,  avg # of iterations =  2.1

     total cpu time spent up to now is        0.3 secs

     total energy              =     -15.84189222 Ry
     Harris-Foulkes estimate   =     -15.84189525 Ry
     estimated scf accuracy    <       0.00000652 Ry

     iteration #  5     ecut=    19.26 Ry     beta=0.70
     Davidson diagonalization with overlap
     ethr =  8.14E-08,  avg # of iterations =  2.2

     total cpu time spent up to now is        0.3 secs

     total energy              =     -15.84189325 Ry
     Harris-Foulkes estimate   =     -15.84189329 Ry
     estimated scf accuracy    <       0.00000008 Ry

     iteration #  6     ecut=    19.26 Ry     beta=0.70
     Davidson diagonalization with overlap
     ethr =  9.78E-10,  avg # of iterations =  2.6

     total cpu time spent up to now is        0.4 secs

     End of self-consistent calculation

          k = 0.0000 0.0000 0.0000 (   339 PWs)   bands (ev):

    -5.7994   6.2705   6.2705   6.2705

          k =-0.2000 0.2000-0.2000 (   368 PWs)   bands (ev):

    -5.2756   3.2315   5.6733   5.6733

          k =-0.4000 0.4000-0.4000 (   380 PWs)   bands (ev):

    -3.8800  -0.0915   5.1160   5.1160

          k = 0.0000 0.4000 0.0000 (   367 PWs)   bands (ev):

    -5.0942   3.6672   4.7403   4.7403

          k =-0.2000 0.6000-0.2000 (   384 PWs)   bands (ev):

    -3.9322   0.9264   3.5848   4.2209

          k = 0.6000-0.2000 0.6000 (   382 PWs)   bands (ev):

    -3.0169  -0.5105   2.7569   4.5118

          k = 0.4000 0.0000 0.4000 (   377 PWs)   bands (ev):

    -4.4287   1.7767   3.1808   5.4029

          k = 0.0000 0.8000 0.0000 (   383 PWs)   bands (ev):

    -3.0446   0.0791   3.5063   3.5063

          k = 0.8000 0.0000 0.8000 (   377 PWs)   bands (ev):

    -1.8016  -1.2064   2.0787   3.6288

          k = 0.6000-0.2000 1.0000 (   383 PWs)   bands (ev):

    -2.5873  -0.3093   2.1702   3.1850

     highest occupied level (ev):     6.2705

!    total energy              =     -15.84189328 Ry
     Harris-Foulkes estimate   =     -15.84189328 Ry
     estimated scf accuracy    <          1.4E-09 Ry

     The total energy is the sum of the following terms:

     one-electron contribution =       4.79076825 Ry
     hartree contribution      =       1.08652037 Ry
     xc contribution           =      -4.81942330 Ry
     ewald contribution        =     -16.89975860 Ry

     convergence has been achieved in   6 iterations

     Forces acting on atoms (Ry/au):

     atom    1 type  1   force =     0.00000000    0.00000000    0.00000000
     atom    2 type  1   force =     0.00000000    0.00000000    0.00000000

     Total force =     0.000000     Total SCF correction =     0.000000


     entering subroutine stress ...

          total   stress  (Ry/bohr**3)                   (kbar)     P=   -4.87
  -0.00003308  -0.00000000  -0.00000000         -4.87     -0.00     -0.00
  -0.00000000  -0.00003308   0.00000000         -0.00     -4.87      0.00
  -0.00000000  -0.00000000  -0.00003308         -0.00     -0.00     -4.87


     Writing output data file silicon.save

     init_run     :      0.06s CPU      0.06s WALL (       1 calls)
     electrons    :      0.28s CPU      0.30s WALL (       1 calls)
     forces       :      0.02s CPU      0.02s WALL (       1 calls)
     stress       :      0.04s CPU      0.04s WALL (       1 calls)

     Called by init_run:
     wfcinit      :      0.03s CPU      0.03s WALL (       1 calls)
     potinit      :      0.00s CPU      0.00s WALL (       1 calls)

     Called by electrons:
     c_bands      :      0.22s CPU      0.23s WALL (       7 calls)
     sum_band     :      0.06s CPU      0.06s WALL (       7 calls)
     v_of_rho     :      0.00s CPU      0.01s WALL (       7 calls)
     mix_rho      :      0.00s CPU      0.00s WALL (       7 calls)

     Called by c_bands:
     init_us_2    :      0.01s CPU      0.01s WALL (     170 calls)
     cegterg      :      0.21s CPU      0.22s WALL (      70 calls)

     Called by sum_band:

     Called by *egterg:
     h_psi        :      0.23s CPU      0.22s WALL (     209 calls)
     g_psi        :      0.00s CPU      0.00s WALL (     129 calls)
     cdiaghg      :      0.00s CPU      0.01s WALL (     189 calls)

     Called by h_psi:
     h_psi:pot    :      0.22s CPU      0.22s WALL (     209 calls)
     h_psi:calbec :      0.01s CPU      0.00s WALL (     209 calls)
     vloc_psi     :      0.22s CPU      0.21s WALL (     209 calls)
     add_vuspsi   :      0.00s CPU      0.00s WALL (     209 calls)

     General routines
     calbec       :      0.01s CPU      0.01s WALL (     259 calls)
     fft          :      0.01s CPU      0.01s WALL (      34 calls)
     fftw         :      0.22s CPU      0.23s WALL (    1936 calls)
     davcio       :      0.00s CPU      0.00s WALL (      10 calls)

     Parallel routines
     fft_scatter  :      0.02s CPU      0.02s WALL (    1970 calls)

     PWSCF        :     0.48s CPU         0.61s WALL


   This run was terminated on:  16: 0:24  16Apr2018            

=------------------------------------------------------------------------------=
   JOB DONE.
=------------------------------------------------------------------------------=
