
     Program PWSCF v.6.0 (svn rev. 13079) starts on 16Apr2018 at 16: 0:29 

     This program is part of the open-source Quantum ESPRESSO suite
     for quantum simulation of materials; please cite
         "P. Giannozzi et al., J. Phys.:Condens. Matter 21 395502 (2009);
          URL http://www.quantum-espresso.org", 
     in publications or presentations arising from this work. More details at
     http://www.quantum-espresso.org/quote

     Parallel version (MPI), running on     1 processors
     Waiting for input...
     Reading input from standard input

     Current dimensions of program PWSCF are:
     Max number of different atomic species (ntypx) = 10
     Max number of k-points (npk) =  40000
     Max angular momentum in pseudopotentials (lmaxx) =  3

     Subspace diagonalization in iterative solution of the eigenvalue problem:
     a serial algorithm will be used


     G-vector sticks info
     --------------------
     sticks:   dense  smooth     PW     G-vecs:    dense   smooth      PW
     Sum         433     433    139                 5985     5985    1067



     bravais-lattice index     =            2
     lattice parameter (alat)  =      10.2000  a.u.
     unit-cell volume          =     265.3020 (a.u.)^3
     number of atoms/cell      =            2
     number of atomic types    =            1
     number of electrons       =         8.00
     number of Kohn-Sham states=            4
     kinetic-energy cutoff     =      30.5220  Ry
     charge density cutoff     =     122.0880  Ry
     convergence threshold     =      1.0E-08
     mixing beta               =       0.7000
     number of iterations used =            8  plain     mixing
     Exchange-correlation      =  SLA  PZ   NOGX NOGC ( 1  1  0  0 0 0)

     celldm(1)=  10.200000  celldm(2)=   0.000000  celldm(3)=   0.000000
     celldm(4)=   0.000000  celldm(5)=   0.000000  celldm(6)=   0.000000

     crystal axes: (cart. coord. in units of alat)
               a(1) = (  -0.500000   0.000000   0.500000 )  
               a(2) = (   0.000000   0.500000   0.500000 )  
               a(3) = (  -0.500000   0.500000   0.000000 )  

     reciprocal axes: (cart. coord. in units 2 pi/alat)
               b(1) = ( -1.000000 -1.000000  1.000000 )  
               b(2) = (  1.000000  1.000000  1.000000 )  
               b(3) = ( -1.000000  1.000000 -1.000000 )  


     PseudoPot. # 1 for Si read from file:
     ../../../PP/Si.pz-vbc.UPF
     MD5 check sum: 6dfa03ddd5817404712e03e4d12deb78
     Pseudo is Norm-conserving, Zval =  4.0
     Generated by new atomic code, or converted to UPF format
     Using radial grid of  431 points,  2 beta functions with: 
                l(1) =   0
                l(2) =   1

     atomic species   valence    mass     pseudopotential
        Si             4.00    28.08600     Si( 1.00)

     24 Sym. Ops. (no inversion) found
          (note: 24 additional sym.ops. were found but ignored
           their fractional translations are incommensurate with FFT grid)


   Cartesian axes

     site n.     atom                  positions (alat units)
         1           Si  tau(   1) = (   0.0000000   0.0000000   0.0000000  )
         2           Si  tau(   2) = (  -0.2500000   0.2500000   0.2500000  )

     number of k points=    10
                       cart. coord. in units 2pi/alat
        k(    1) = (   0.0000000   0.0000000   0.0000000), wk =   0.0160000
        k(    2) = (  -0.2000000   0.2000000  -0.2000000), wk =   0.1280000
        k(    3) = (  -0.4000000   0.4000000  -0.4000000), wk =   0.1280000
        k(    4) = (   0.0000000   0.4000000   0.0000000), wk =   0.0960000
        k(    5) = (  -0.2000000   0.6000000  -0.2000000), wk =   0.3840000
        k(    6) = (   0.6000000  -0.2000000   0.6000000), wk =   0.3840000
        k(    7) = (   0.4000000   0.0000000   0.4000000), wk =   0.1920000
        k(    8) = (   0.0000000   0.8000000   0.0000000), wk =   0.0960000
        k(    9) = (   0.8000000   0.0000000   0.8000000), wk =   0.1920000
        k(   10) = (   0.6000000  -0.2000000   1.0000000), wk =   0.3840000

     Dense  grid:     5985 G-vectors     FFT dimensions: (  25,  25,  25)

     Estimated max dynamical RAM per process >       4.26Mb

     Initial potential from superposition of free atoms

     starting charge    7.99901, renormalised to    8.00000
     Starting wfc are    8 randomized atomic wfcs

     total cpu time spent up to now is        0.1 secs

     per-process dynamical memory:     6.9 Mb

     Self-consistent Calculation

     iteration #  1     ecut=    30.52 Ry     beta=0.70
     Davidson diagonalization with overlap
     ethr =  1.00E-02,  avg # of iterations =  2.0

     Threshold (ethr) on eigenvalues was too large:
     Diagonalizing with lowered threshold

     Davidson diagonalization with overlap
     ethr =  8.24E-04,  avg # of iterations =  1.0

     total cpu time spent up to now is        0.1 secs

     total energy              =     -15.84398586 Ry
     Harris-Foulkes estimate   =     -15.86595599 Ry
     estimated scf accuracy    <       0.06434998 Ry

     iteration #  2     ecut=    30.52 Ry     beta=0.70
     Davidson diagonalization with overlap
     ethr =  8.04E-04,  avg # of iterations =  1.0

     total cpu time spent up to now is        0.2 secs

     total energy              =     -15.84714512 Ry
     Harris-Foulkes estimate   =     -15.84746115 Ry
     estimated scf accuracy    <       0.00225594 Ry

     iteration #  3     ecut=    30.52 Ry     beta=0.70
     Davidson diagonalization with overlap
     ethr =  2.82E-05,  avg # of iterations =  2.1

     total cpu time spent up to now is        0.2 secs

     total energy              =     -15.84753889 Ry
     Harris-Foulkes estimate   =     -15.84756804 Ry
     estimated scf accuracy    <       0.00007186 Ry

     iteration #  4     ecut=    30.52 Ry     beta=0.70
     Davidson diagonalization with overlap
     ethr =  8.98E-07,  avg # of iterations =  2.4

     total cpu time spent up to now is        0.2 secs

     total energy              =     -15.84755861 Ry
     Harris-Foulkes estimate   =     -15.84756194 Ry
     estimated scf accuracy    <       0.00000702 Ry

     iteration #  5     ecut=    30.52 Ry     beta=0.70
     Davidson diagonalization with overlap
     ethr =  8.78E-08,  avg # of iterations =  2.0

     total cpu time spent up to now is        0.3 secs

     total energy              =     -15.84755968 Ry
     Harris-Foulkes estimate   =     -15.84755973 Ry
     estimated scf accuracy    <       0.00000012 Ry

     iteration #  6     ecut=    30.52 Ry     beta=0.70
     Davidson diagonalization with overlap
     ethr =  1.45E-09,  avg # of iterations =  2.4

     total cpu time spent up to now is        0.3 secs

     End of self-consistent calculation

          k = 0.0000 0.0000 0.0000 (   749 PWs)   bands (ev):

    -5.8080   6.2479   6.2479   6.2479

          k =-0.2000 0.2000-0.2000 (   769 PWs)   bands (ev):

    -5.2817   3.2214   5.6585   5.6585

          k =-0.4000 0.4000-0.4000 (   763 PWs)   bands (ev):

    -3.8860  -0.0961   5.1045   5.1045

          k = 0.0000 0.4000 0.0000 (   753 PWs)   bands (ev):

    -5.1010   3.6554   4.7287   4.7287

          k =-0.2000 0.6000-0.2000 (   752 PWs)   bands (ev):

    -3.9373   0.9199   3.5767   4.2128

          k = 0.6000-0.2000 0.6000 (   753 PWs)   bands (ev):

    -3.0228  -0.5150   2.7496   4.5033

          k = 0.4000 0.0000 0.4000 (   766 PWs)   bands (ev):

    -4.4345   1.7683   3.1730   5.3907

          k = 0.0000 0.8000 0.0000 (   753 PWs)   bands (ev):

    -3.0499   0.0713   3.5002   3.5002

          k = 0.8000 0.0000 0.8000 (   746 PWs)   bands (ev):

    -1.8095  -1.2129   2.0737   3.6220

          k = 0.6000-0.2000 1.0000 (   750 PWs)   bands (ev):

    -2.5934  -0.3161   2.1652   3.1780

     highest occupied level (ev):     6.2479

!    total energy              =     -15.84755971 Ry
     Harris-Foulkes estimate   =     -15.84755971 Ry
     estimated scf accuracy    <          1.3E-09 Ry

     The total energy is the sum of the following terms:

     one-electron contribution =       4.78504477 Ry
     hartree contribution      =       1.08821409 Ry
     xc contribution           =      -4.82105997 Ry
     ewald contribution        =     -16.89975860 Ry

     convergence has been achieved in   6 iterations

     Forces acting on atoms (Ry/au):

     atom    1 type  1   force =    -0.00000000    0.00000000   -0.00000000
     atom    2 type  1   force =     0.00000000    0.00000000    0.00000000

     Total force =     0.000000     Total SCF correction =     0.000000


     entering subroutine stress ...

          total   stress  (Ry/bohr**3)                   (kbar)     P=    2.95
   0.00002003   0.00000000  -0.00000000          2.95      0.00     -0.00
   0.00000000   0.00002003   0.00000000          0.00      2.95      0.00
  -0.00000000   0.00000000   0.00002003         -0.00      0.00      2.95


     Writing output data file silicon.save

     init_run     :      0.06s CPU      0.06s WALL (       1 calls)
     electrons    :      0.24s CPU      0.28s WALL (       1 calls)
     forces       :      0.02s CPU      0.03s WALL (       1 calls)
     stress       :      0.07s CPU      0.07s WALL (       1 calls)

     Called by init_run:
     wfcinit      :      0.03s CPU      0.03s WALL (       1 calls)
     potinit      :      0.00s CPU      0.00s WALL (       1 calls)

     Called by electrons:
     c_bands      :      0.19s CPU      0.21s WALL (       7 calls)
     sum_band     :      0.05s CPU      0.04s WALL (       7 calls)
     v_of_rho     :      0.01s CPU      0.01s WALL (       7 calls)
     mix_rho      :      0.00s CPU      0.00s WALL (       7 calls)

     Called by c_bands:
     init_us_2    :      0.02s CPU      0.02s WALL (     170 calls)
     cegterg      :      0.18s CPU      0.20s WALL (      70 calls)

     Called by sum_band:

     Called by *egterg:
     h_psi        :      0.18s CPU      0.18s WALL (     209 calls)
     g_psi        :      0.00s CPU      0.00s WALL (     129 calls)
     cdiaghg      :      0.01s CPU      0.01s WALL (     189 calls)

     Called by h_psi:
     h_psi:pot    :      0.18s CPU      0.18s WALL (     209 calls)
     h_psi:calbec :      0.01s CPU      0.01s WALL (     209 calls)
     vloc_psi     :      0.16s CPU      0.16s WALL (     209 calls)
     add_vuspsi   :      0.01s CPU      0.01s WALL (     209 calls)

     General routines
     calbec       :      0.01s CPU      0.01s WALL (     259 calls)
     fft          :      0.01s CPU      0.01s WALL (      34 calls)
     fftw         :      0.17s CPU      0.16s WALL (    1940 calls)
     davcio       :      0.00s CPU      0.02s WALL (      10 calls)

     Parallel routines
     fft_scatter  :      0.02s CPU      0.02s WALL (    1974 calls)

     PWSCF        :     0.44s CPU         0.54s WALL


   This run was terminated on:  16: 0:30  16Apr2018            

=------------------------------------------------------------------------------=
   JOB DONE.
=------------------------------------------------------------------------------=
