
     Program PWSCF v.6.0 (svn rev. 13079) starts on 16Apr2018 at 16:25:32 

     This program is part of the open-source Quantum ESPRESSO suite
     for quantum simulation of materials; please cite
         "P. Giannozzi et al., J. Phys.:Condens. Matter 21 395502 (2009);
          URL http://www.quantum-espresso.org", 
     in publications or presentations arising from this work. More details at
     http://www.quantum-espresso.org/quote

     Parallel version (MPI), running on     1 processors
     Waiting for input...
     Reading input from standard input
     Message from routine read_cards :
     DEPRECATED: no units specified in ATOMIC_POSITIONS card
     Message from routine read_cards :
     ATOMIC_POSITIONS: units set to alat

     Current dimensions of program PWSCF are:
     Max number of different atomic species (ntypx) = 10
     Max number of k-points (npk) =  40000
     Max angular momentum in pseudopotentials (lmaxx) =  3

     Subspace diagonalization in iterative solution of the eigenvalue problem:
     a serial algorithm will be used


     G-vector sticks info
     --------------------
     sticks:   dense  smooth     PW     G-vecs:    dense   smooth      PW
     Sum         151     151     61                 1243     1243     331



     bravais-lattice index     =            2
     lattice parameter (alat)  =       7.5000  a.u.
     unit-cell volume          =     105.4688 (a.u.)^3
     number of atoms/cell      =            1
     number of atomic types    =            1
     number of electrons       =         3.00
     number of Kohn-Sham states=            6
     kinetic-energy cutoff     =      20.0000  Ry
     charge density cutoff     =      80.0000  Ry
     convergence threshold     =      1.0E-06
     mixing beta               =       0.7000
     number of iterations used =            8  plain     mixing
     Exchange-correlation      =  SLA  PZ   NOGX NOGC ( 1  1  0  0 0 0)

     celldm(1)=   7.500000  celldm(2)=   0.000000  celldm(3)=   0.000000
     celldm(4)=   0.000000  celldm(5)=   0.000000  celldm(6)=   0.000000

     crystal axes: (cart. coord. in units of alat)
               a(1) = (  -0.500000   0.000000   0.500000 )  
               a(2) = (   0.000000   0.500000   0.500000 )  
               a(3) = (  -0.500000   0.500000   0.000000 )  

     reciprocal axes: (cart. coord. in units 2 pi/alat)
               b(1) = ( -1.000000 -1.000000  1.000000 )  
               b(2) = (  1.000000  1.000000  1.000000 )  
               b(3) = ( -1.000000  1.000000 -1.000000 )  


     PseudoPot. # 1 for Al read from file:
     ../../../PP/Al.pz-vbc.UPF
     MD5 check sum: f06ceae8da0fe5c02c98e3688433298c
     Pseudo is Norm-conserving, Zval =  3.0
     Generated by new atomic code, or converted to UPF format
     Using radial grid of  171 points,  2 beta functions with: 
                l(1) =   0
                l(2) =   1

     atomic species   valence    mass     pseudopotential
        Al             3.00    26.98000     Al( 1.00)

     48 Sym. Ops., with inversion, found



   Cartesian axes

     site n.     atom                  positions (alat units)
         1           Al  tau(   1) = (   0.0000000   0.0000000   0.0000000  )

     number of k points=    72  Marzari-Vanderbilt smearing, width (Ry)=  0.0500
                       cart. coord. in units 2pi/alat
        k(    1) = (   0.0000000   0.0000000   0.0000000), wk =   0.0011574
        k(    2) = (  -0.0833333   0.0833333  -0.0833333), wk =   0.0092593
        k(    3) = (  -0.1666667   0.1666667  -0.1666667), wk =   0.0092593
        k(    4) = (  -0.2500000   0.2500000  -0.2500000), wk =   0.0092593
        k(    5) = (  -0.3333333   0.3333333  -0.3333333), wk =   0.0092593
        k(    6) = (  -0.4166667   0.4166667  -0.4166667), wk =   0.0092593
        k(    7) = (   0.5000000  -0.5000000   0.5000000), wk =   0.0046296
        k(    8) = (   0.0000000   0.1666667   0.0000000), wk =   0.0069444
        k(    9) = (  -0.0833333   0.2500000  -0.0833333), wk =   0.0277778
        k(   10) = (  -0.1666667   0.3333333  -0.1666667), wk =   0.0277778
        k(   11) = (  -0.2500000   0.4166667  -0.2500000), wk =   0.0277778
        k(   12) = (  -0.3333333   0.5000000  -0.3333333), wk =   0.0277778
        k(   13) = (   0.5833333  -0.4166667   0.5833333), wk =   0.0277778
        k(   14) = (   0.5000000  -0.3333333   0.5000000), wk =   0.0277778
        k(   15) = (   0.4166667  -0.2500000   0.4166667), wk =   0.0277778
        k(   16) = (   0.3333333  -0.1666667   0.3333333), wk =   0.0277778
        k(   17) = (   0.2500000  -0.0833333   0.2500000), wk =   0.0277778
        k(   18) = (   0.1666667  -0.0000000   0.1666667), wk =   0.0138889
        k(   19) = (   0.0000000   0.3333333   0.0000000), wk =   0.0069444
        k(   20) = (  -0.0833333   0.4166667  -0.0833333), wk =   0.0277778
        k(   21) = (  -0.1666667   0.5000000  -0.1666667), wk =   0.0277778
        k(   22) = (  -0.2500000   0.5833333  -0.2500000), wk =   0.0277778
        k(   23) = (   0.6666667  -0.3333333   0.6666667), wk =   0.0277778
        k(   24) = (   0.5833333  -0.2500000   0.5833333), wk =   0.0277778
        k(   25) = (   0.5000000  -0.1666667   0.5000000), wk =   0.0277778
        k(   26) = (   0.4166667  -0.0833333   0.4166667), wk =   0.0277778
        k(   27) = (   0.3333333   0.0000000   0.3333333), wk =   0.0138889
        k(   28) = (   0.0000000   0.5000000   0.0000000), wk =   0.0069444
        k(   29) = (  -0.0833333   0.5833333  -0.0833333), wk =   0.0277778
        k(   30) = (  -0.1666667   0.6666667  -0.1666667), wk =   0.0277778
        k(   31) = (   0.7500000  -0.2500000   0.7500000), wk =   0.0277778
        k(   32) = (   0.6666667  -0.1666667   0.6666667), wk =   0.0277778
        k(   33) = (   0.5833333  -0.0833333   0.5833333), wk =   0.0277778
        k(   34) = (   0.5000000   0.0000000   0.5000000), wk =   0.0138889
        k(   35) = (   0.0000000   0.6666667   0.0000000), wk =   0.0069444
        k(   36) = (  -0.0833333   0.7500000  -0.0833333), wk =   0.0277778
        k(   37) = (   0.8333333  -0.1666667   0.8333333), wk =   0.0277778
        k(   38) = (   0.7500000  -0.0833333   0.7500000), wk =   0.0277778
        k(   39) = (   0.6666667  -0.0000000   0.6666667), wk =   0.0138889
        k(   40) = (   0.0000000   0.8333333   0.0000000), wk =   0.0069444
        k(   41) = (   0.9166667  -0.0833333   0.9166667), wk =   0.0277778
        k(   42) = (   0.8333333   0.0000000   0.8333333), wk =   0.0138889
        k(   43) = (   0.0000000  -1.0000000   0.0000000), wk =   0.0034722
        k(   44) = (  -0.1666667   0.3333333   0.0000000), wk =   0.0277778
        k(   45) = (  -0.2500000   0.4166667  -0.0833333), wk =   0.0555556
        k(   46) = (  -0.3333333   0.5000000  -0.1666667), wk =   0.0555556
        k(   47) = (   0.5833333  -0.4166667   0.7500000), wk =   0.0555556
        k(   48) = (   0.5000000  -0.3333333   0.6666667), wk =   0.0277778
        k(   49) = (  -0.1666667   0.5000000   0.0000000), wk =   0.0277778
        k(   50) = (  -0.2500000   0.5833333  -0.0833333), wk =   0.0555556
        k(   51) = (   0.6666667  -0.3333333   0.8333333), wk =   0.0555556
        k(   52) = (   0.5833333  -0.2500000   0.7500000), wk =   0.0555556
        k(   53) = (   0.5000000  -0.1666667   0.6666667), wk =   0.0555556
        k(   54) = (   0.4166667  -0.0833333   0.5833333), wk =   0.0555556
        k(   55) = (   0.3333333   0.0000000   0.5000000), wk =   0.0277778
        k(   56) = (  -0.1666667   0.6666667  -0.0000000), wk =   0.0277778
        k(   57) = (   0.7500000  -0.2500000   0.9166667), wk =   0.0555556
        k(   58) = (   0.6666667  -0.1666667   0.8333333), wk =   0.0555556
        k(   59) = (   0.5833333  -0.0833333   0.7500000), wk =   0.0555556
        k(   60) = (   0.5000000   0.0000000   0.6666667), wk =   0.0277778
        k(   61) = (   0.8333333  -0.1666667   1.0000000), wk =   0.0277778
        k(   62) = (   0.7500000  -0.0833333   0.9166667), wk =   0.0555556
        k(   63) = (   0.6666667   0.0000000   0.8333333), wk =   0.0277778
        k(   64) = (  -0.1666667  -1.0000000  -0.0000000), wk =   0.0138889
        k(   65) = (   0.6666667  -0.3333333   1.0000000), wk =   0.0277778
        k(   66) = (   0.5833333  -0.2500000   0.9166667), wk =   0.0555556
        k(   67) = (   0.5000000  -0.1666667   0.8333333), wk =   0.0277778
        k(   68) = (   0.6666667  -0.1666667   1.0000000), wk =   0.0277778
        k(   69) = (   0.5833333  -0.0833333   0.9166667), wk =   0.0555556
        k(   70) = (   0.5000000   0.0000000   0.8333333), wk =   0.0277778
        k(   71) = (  -0.3333333  -1.0000000   0.0000000), wk =   0.0138889
        k(   72) = (  -0.5000000  -1.0000000   0.0000000), wk =   0.0069444

     Dense  grid:     1243 G-vectors     FFT dimensions: (  15,  15,  15)

     Estimated max dynamical RAM per process >       1.88Mb

     Initial potential from superposition of free atoms

     starting charge    2.99794, renormalised to    3.00000
     Starting wfc are    4 randomized atomic wfcs +    2 random wfc

     total cpu time spent up to now is        0.1 secs

     per-process dynamical memory:     5.6 Mb

     Self-consistent Calculation

     iteration #  1     ecut=    20.00 Ry     beta=0.70
     Davidson diagonalization with overlap
     ethr =  1.00E-02,  avg # of iterations =  4.6

     Threshold (ethr) on eigenvalues was too large:
     Diagonalizing with lowered threshold

     Davidson diagonalization with overlap
     ethr =  1.93E-04,  avg # of iterations =  1.4

     total cpu time spent up to now is        0.5 secs

     total energy              =      -4.18928574 Ry
     Harris-Foulkes estimate   =      -4.19004991 Ry
     estimated scf accuracy    <       0.00578020 Ry

     iteration #  2     ecut=    20.00 Ry     beta=0.70
     Davidson diagonalization with overlap
     ethr =  1.93E-04,  avg # of iterations =  1.0

     total cpu time spent up to now is        0.6 secs

     total energy              =      -4.18928702 Ry
     Harris-Foulkes estimate   =      -4.18931010 Ry
     estimated scf accuracy    <       0.00044847 Ry

     iteration #  3     ecut=    20.00 Ry     beta=0.70
     Davidson diagonalization with overlap
     ethr =  1.49E-05,  avg # of iterations =  1.5

     total cpu time spent up to now is        0.7 secs

     End of self-consistent calculation

          k = 0.0000 0.0000 0.0000 (   169 PWs)   bands (ev):

    -3.1926  21.1687  21.1687  22.5369  22.5369  22.5369

          k =-0.0833 0.0833-0.0833 (   168 PWs)   bands (ev):

    -2.9947  18.4494  20.5535  20.5535  23.2790  23.4489

          k =-0.1667 0.1667-0.1667 (   159 PWs)   bands (ev):

    -2.4033  15.0280  19.8308  19.8308  23.1456  24.5590

          k =-0.2500 0.2500-0.2500 (   156 PWs)   bands (ev):

    -1.4257  11.7776  19.3814  19.3814  22.9494  23.3287

          k =-0.3333 0.3333-0.3333 (   153 PWs)   bands (ev):

    -0.0731   8.7884  19.2408  19.2408  21.8943  21.8950

          k =-0.4167 0.4167-0.4167 (   162 PWs)   bands (ev):

     1.6384   6.0903  19.4177  19.4177  20.7466  20.7467

          k = 0.5000-0.5000 0.5000 (   156 PWs)   bands (ev):

     3.5860   3.8149  19.8837  19.8837  19.9571  19.9571

          k = 0.0000 0.1667 0.0000 (   165 PWs)   bands (ev):

    -2.9287  19.3732  19.3732  19.6590  22.0131  24.7244

          k =-0.0833 0.2500-0.0833 (   160 PWs)   bands (ev):

    -2.4687  16.2471  18.4817  19.7904  22.3723  23.4469

          k =-0.1667 0.3333-0.1667 (   158 PWs)   bands (ev):

    -1.6204  12.9663  17.9055  19.4596  21.2914  24.2118

          k =-0.2500 0.4167-0.2500 (   156 PWs)   bands (ev):

    -0.3934   9.9022  17.6488  19.2472  19.7205  24.2446

          k =-0.3333 0.5000-0.3333 (   160 PWs)   bands (ev):

     1.1975   7.1131  17.7135  18.3957  19.3885  23.0137

          k = 0.5833-0.4167 0.5833 (   160 PWs)   bands (ev):

     3.1319   4.6330  17.4485  18.1024  19.8078  22.0855

          k = 0.5000-0.3333 0.5000 (   162 PWs)   bands (ev):

     2.4517   5.4216  16.8305  18.8151  20.5623  21.4773

          k = 0.4167-0.2500 0.4167 (   156 PWs)   bands (ev):

     0.6280   8.0081  16.5487  19.8479  21.2011  21.6398

          k = 0.3333-0.1667 0.3333 (   157 PWs)   bands (ev):

    -0.8437  10.8867  16.6060  21.0172  21.4178  23.0132

          k = 0.2500-0.0833 0.2500 (   159 PWs)   bands (ev):

    -1.9458  14.0058  17.0168  21.4710  22.8130  24.0362

          k = 0.1667-0.0000 0.1667 (   163 PWs)   bands (ev):

    -2.6656  17.0148  18.0387  21.6824  22.8042  23.8650

          k = 0.0000 0.3333 0.0000 (   161 PWs)   bands (ev):

    -2.1414  17.4598  17.4598  17.5376  20.8354  21.0083

          k =-0.0833 0.4167-0.0833 (   159 PWs)   bands (ev):

    -1.4254  14.4027  16.7666  18.0596  18.9385  21.2432

          k =-0.1667 0.5000-0.1667 (   159 PWs)   bands (ev):

    -0.3290  11.3255  16.3973  17.1017  18.1018  23.0568

          k =-0.2500 0.5833-0.2500 (   156 PWs)   bands (ev):

     1.1347   8.4733  15.7024  16.3515  18.1295  25.3319

          k = 0.6667-0.3333 0.6667 (   158 PWs)   bands (ev):

     2.9472   5.9054  14.6224  16.6284  18.4706  24.5958

          k = 0.5833-0.2500 0.5833 (   162 PWs)   bands (ev):

     3.6229   5.1178  13.8859  17.2293  19.1482  23.8848

          k = 0.5000-0.1667 0.5000 (   157 PWs)   bands (ev):

     1.7015   7.5660  13.5085  18.1575  20.1592  23.4941

          k = 0.4167-0.0833 0.4167 (   157 PWs)   bands (ev):

     0.1188  10.2681  13.5348  19.4080  21.4818  23.4049

          k = 0.3333 0.0000 0.3333 (   158 PWs)   bands (ev):

    -1.1018  12.7967  14.3527  20.9572  23.0605  23.2157

          k = 0.0000 0.5000 0.0000 (   165 PWs)   bands (ev):

    -0.8433  15.7793  15.9591  15.9591  16.6803  19.6127

          k =-0.0833 0.5833-0.0833 (   158 PWs)   bands (ev):

     0.1190  12.9899  14.7846  15.4809  16.7133  20.0952

          k =-0.1667 0.6667-0.1667 (   157 PWs)   bands (ev):

     1.4492  10.1356  13.2349  15.3245  16.9154  22.0990

          k = 0.7500-0.2500 0.7500 (   158 PWs)   bands (ev):

     3.1295   7.5112  12.0225  15.4910  17.2103  24.6860

          k = 0.6667-0.1667 0.6667 (   158 PWs)   bands (ev):

     4.9930   5.3180  11.1703  15.9801  17.8065  26.6369

          k = 0.5833-0.0833 0.5833 (   160 PWs)   bands (ev):

     3.1339   7.4269  10.7339  16.7946  18.7342  26.1461

          k = 0.5000 0.0000 0.5000 (   156 PWs)   bands (ev):

     1.4500   9.5066  11.1556  17.9385  19.9782  26.2242

          k = 0.0000 0.6667 0.0000 (   154 PWs)   bands (ev):

     0.9447  12.7357  14.5005  14.8935  14.8935  18.5861

          k =-0.0833 0.7500-0.0833 (   162 PWs)   bands (ev):

     2.1362  11.0059  12.0977  14.6270  15.7459  19.2650

          k = 0.8333-0.1667 0.8333 (   162 PWs)   bands (ev):

     3.6731   9.2760   9.8771  14.6841  16.1840  21.4907

          k = 0.7500-0.0833 0.7500 (   162 PWs)   bands (ev):

     5.4919   7.0077   8.8295  15.0617  16.7297  24.3206

          k = 0.6667-0.0000 0.6667 (   164 PWs)   bands (ev):

     4.9040   7.1717   8.7348  15.7638  17.5747  27.3585

          k = 0.0000 0.8333 0.0000 (   162 PWs)   bands (ev):

     3.1818   9.2064  13.7278  14.2548  14.2548  17.9196

          k = 0.9167-0.0833 0.9167 (   156 PWs)   bands (ev):

     4.5420   7.7646  11.6046  14.2037  15.2603  18.8316

          k = 0.8333 0.0000 0.8333 (   166 PWs)   bands (ev):

     5.7807   7.1217   9.2577  14.4709  15.9365  21.2830

          k = 0.0000-1.0000 0.0000 (   150 PWs)   bands (ev):

     5.3214   6.6398  13.4696  14.0444  14.0444  17.6899

          k =-0.1667 0.3333 0.0000 (   162 PWs)   bands (ev):

    -1.8805  14.9156  16.2013  20.4950  21.1072  22.3917

          k =-0.2500 0.4167-0.0833 (   158 PWs)   bands (ev):

    -0.9080  12.1428  15.2899  19.3191  20.6968  23.6760

          k =-0.3333 0.5000-0.1667 (   155 PWs)   bands (ev):

     0.4374   9.2323  15.0657  17.8115  20.6774  23.4743

          k = 0.5833-0.4167 0.7500 (   159 PWs)   bands (ev):

     2.1398   6.5654  15.2058  16.6422  20.8898  22.3507

          k = 0.5000-0.3333 0.6667 (   162 PWs)   bands (ev):

     4.0550   4.3263  15.5212  15.9843  21.2412  21.6829

          k =-0.1667 0.5000 0.0000 (   158 PWs)   bands (ev):

    -0.5858  13.2693  14.6547  16.9684  18.9403  21.1650

          k =-0.2500 0.5833-0.0833 (   157 PWs)   bands (ev):

     0.6280  10.7281  13.8937  15.3508  19.4343  22.6859

          k = 0.6667-0.3333 0.8333 (   155 PWs)   bands (ev):

     2.2014   8.0377  13.6496  14.2723  19.6782  24.6503

          k = 0.5833-0.2500 0.7500 (   164 PWs)   bands (ev):

     4.1065   5.6047  12.9136  14.4155  20.1433  24.0450

          k = 0.5000-0.1667 0.6667 (   161 PWs)   bands (ev):

     3.4409   6.3661  12.3304  15.1227  20.9058  23.4259

          k = 0.4167-0.0833 0.5833 (   158 PWs)   bands (ev):

     1.6383   8.8490  12.1389  16.1923  21.9461  23.0636

          k = 0.3333 0.0000 0.5000 (   158 PWs)   bands (ev):

     0.1825  11.1490  12.7712  17.5984  22.4365  23.1215

          k =-0.1667 0.6667-0.0000 (   162 PWs)   bands (ev):

     1.1969  12.0886  12.8312  13.7555  17.7868  20.1999

          k = 0.7500-0.2500 0.9167 (   159 PWs)   bands (ev):

     2.6342   9.7642  11.4987  13.1414  18.5312  21.9260

          k = 0.6667-0.1667 0.8333 (   159 PWs)   bands (ev):

     4.4037   7.3121  10.4398  13.3252  19.0184  24.5358

          k = 0.5833-0.0833 0.7500 (   161 PWs)   bands (ev):

     5.0768   6.4831   9.7652  13.9276  19.7209  26.1259

          k = 0.5000 0.0000 0.6667 (   160 PWs)   bands (ev):

     3.1949   8.3369   9.9456  14.8904  20.7131  25.3239

          k = 0.8333-0.1667 1.0000 (   160 PWs)   bands (ev):

     3.4280   9.4313  11.3798  12.9617  17.0903  19.5795

          k = 0.7500-0.0833 0.9167 (   163 PWs)   bands (ev):

     5.0209   8.2075   9.3800  12.6394  18.0703  21.5248

          k = 0.6667 0.0000 0.8333 (   164 PWs)   bands (ev):

     6.4751   6.9684   8.0546  13.0840  18.7931  24.3742

          k =-0.1667-1.0000-0.0000 (   164 PWs)   bands (ev):

     5.5503   6.8894  11.1429  12.7249  16.8572  19.3662

          k = 0.6667-0.3333 1.0000 (   156 PWs)   bands (ev):

     1.9513   9.9746  11.5542  13.8164  21.3392  22.9938

          k = 0.5833-0.2500 0.9167 (   159 PWs)   bands (ev):

     3.6223   7.8970  11.1151  12.6467  22.1596  23.6421

          k = 0.5000-0.1667 0.8333 (   162 PWs)   bands (ev):

     5.4602   5.7962  11.2744  12.0752  22.5340  23.1448

          k = 0.6667-0.1667 1.0000 (   158 PWs)   bands (ev):

     4.1619   9.2709   9.9714  11.2019  20.6521  22.5223

          k = 0.5833-0.0833 0.9167 (   160 PWs)   bands (ev):

     5.9680   7.4061   9.1980  10.9094  21.7486  24.6282

          k = 0.5000 0.0000 0.8333 (   158 PWs)   bands (ev):

     5.3700   7.6375   9.1580  11.5416  22.5809  24.6781

          k =-0.3333-1.0000 0.0000 (   162 PWs)   bands (ev):

     6.2437   7.6069   9.0362  10.8176  20.4205  22.3431

          k =-0.5000-1.0000 0.0000 (   156 PWs)   bands (ev):

     7.4045   7.4045   8.3661   9.6305  24.4540  24.8524

     the Fermi energy is     8.2185 ev

!    total energy              =      -4.18929004 Ry
     Harris-Foulkes estimate   =      -4.18928993 Ry
     estimated scf accuracy    <       0.00000030 Ry

     The total energy is the sum of the following terms:

     one-electron contribution =       2.93706341 Ry
     hartree contribution      =       0.00986652 Ry
     xc contribution           =      -1.63477662 Ry
     ewald contribution        =      -5.50183460 Ry
     smearing contrib. (-TS)   =       0.00039125 Ry

     convergence has been achieved in   3 iterations

     Forces acting on atoms (Ry/au):

     atom    1 type  1   force =     0.00000000    0.00000000    0.00000000

     Total force =     0.000000     Total SCF correction =     0.000000


     entering subroutine stress ...

          total   stress  (Ry/bohr**3)                   (kbar)     P=   -9.05
  -0.00006151  -0.00000000  -0.00000000         -9.05     -0.00     -0.00
  -0.00000000  -0.00006151  -0.00000000         -0.00     -9.05     -0.00
   0.00000000  -0.00000000  -0.00006151          0.00     -0.00     -9.05


     Writing output data file aluminium.save

     init_run     :      0.06s CPU      0.06s WALL (       1 calls)
     electrons    :      0.54s CPU      0.63s WALL (       1 calls)
     forces       :      0.01s CPU      0.01s WALL (       1 calls)
     stress       :      0.05s CPU      0.06s WALL (       1 calls)

     Called by init_run:
     wfcinit      :      0.04s CPU      0.05s WALL (       1 calls)
     potinit      :      0.00s CPU      0.00s WALL (       1 calls)

     Called by electrons:
     c_bands      :      0.47s CPU      0.56s WALL (       4 calls)
     sum_band     :      0.06s CPU      0.07s WALL (       4 calls)
     v_of_rho     :      0.00s CPU      0.00s WALL (       4 calls)
     mix_rho      :      0.00s CPU      0.00s WALL (       4 calls)

     Called by c_bands:
     init_us_2    :      0.03s CPU      0.03s WALL (     792 calls)
     cegterg      :      0.44s CPU      0.53s WALL (     288 calls)

     Called by sum_band:

     Called by *egterg:
     h_psi        :      0.28s CPU      0.37s WALL (     968 calls)
     g_psi        :      0.00s CPU      0.00s WALL (     608 calls)
     cdiaghg      :      0.10s CPU      0.09s WALL (     824 calls)

     Called by h_psi:
     h_psi:pot    :      0.27s CPU      0.36s WALL (     968 calls)
     h_psi:calbec :      0.02s CPU      0.01s WALL (     968 calls)
     vloc_psi     :      0.24s CPU      0.34s WALL (     968 calls)
     add_vuspsi   :      0.02s CPU      0.01s WALL (     968 calls)

     General routines
     calbec       :      0.02s CPU      0.02s WALL (    1328 calls)
     fft          :      0.00s CPU      0.00s WALL (      22 calls)
     fftw         :      0.23s CPU      0.32s WALL (   11486 calls)
     davcio       :      0.00s CPU      0.00s WALL (      72 calls)

     Parallel routines
     fft_scatter  :      0.04s CPU      0.04s WALL (   11508 calls)

     PWSCF        :     0.82s CPU         0.93s WALL


   This run was terminated on:  16:25:33  16Apr2018            

=------------------------------------------------------------------------------=
   JOB DONE.
=------------------------------------------------------------------------------=
