
     Program PWSCF v.6.0 (svn rev. 13079) starts on 22Jun2018 at 12:52: 9 

     This program is part of the open-source Quantum ESPRESSO suite
     for quantum simulation of materials; please cite
         "P. Giannozzi et al., J. Phys.:Condens. Matter 21 395502 (2009);
          URL http://www.quantum-espresso.org", 
     in publications or presentations arising from this work. More details at
     http://www.quantum-espresso.org/quote

     Parallel version (MPI), running on     1 processors
     Waiting for input...
     Reading input from standard input

     Current dimensions of program PWSCF are:
     Max number of different atomic species (ntypx) = 10
     Max number of k-points (npk) =  40000
     Max angular momentum in pseudopotentials (lmaxx) =  3

     Subspace diagonalization in iterative solution of the eigenvalue problem:
     a serial algorithm will be used


     G-vector sticks info
     --------------------
     sticks:   dense  smooth     PW     G-vecs:    dense   smooth      PW
     Sum         337     337    109                 4015     4015     749



     bravais-lattice index     =            2
     lattice parameter (alat)  =      10.2000  a.u.
     unit-cell volume          =     265.3020 (a.u.)^3
     number of atoms/cell      =            2
     number of atomic types    =            1
     number of electrons       =         8.00
     number of Kohn-Sham states=            4
     kinetic-energy cutoff     =      23.4170  Ry
     charge density cutoff     =      93.6680  Ry
     convergence threshold     =      1.0E-08
     mixing beta               =       0.7000
     number of iterations used =            8  plain     mixing
     Exchange-correlation      =  SLA  PZ   NOGX NOGC ( 1  1  0  0 0 0)

     celldm(1)=  10.200000  celldm(2)=   0.000000  celldm(3)=   0.000000
     celldm(4)=   0.000000  celldm(5)=   0.000000  celldm(6)=   0.000000

     crystal axes: (cart. coord. in units of alat)
               a(1) = (  -0.500000   0.000000   0.500000 )  
               a(2) = (   0.000000   0.500000   0.500000 )  
               a(3) = (  -0.500000   0.500000   0.000000 )  

     reciprocal axes: (cart. coord. in units 2 pi/alat)
               b(1) = ( -1.000000 -1.000000  1.000000 )  
               b(2) = (  1.000000  1.000000  1.000000 )  
               b(3) = ( -1.000000  1.000000 -1.000000 )  


     PseudoPot. # 1 for Si read from file:
     ../../../PP/Si.pz-vbc.UPF
     MD5 check sum: 6dfa03ddd5817404712e03e4d12deb78
     Pseudo is Norm-conserving, Zval =  4.0
     Generated by new atomic code, or converted to UPF format
     Using radial grid of  431 points,  2 beta functions with: 
                l(1) =   0
                l(2) =   1

     atomic species   valence    mass     pseudopotential
        Si             4.00    28.08600     Si( 1.00)

     48 Sym. Ops., with inversion, found (24 have fractional translation)



   Cartesian axes

     site n.     atom                  positions (alat units)
         1           Si  tau(   1) = (   0.0000000   0.0000000   0.0000000  )
         2           Si  tau(   2) = (  -0.2500000   0.2500000   0.2500000  )

     number of k points=    10
                       cart. coord. in units 2pi/alat
        k(    1) = (   0.0000000   0.0000000   0.0000000), wk =   0.0160000
        k(    2) = (  -0.2000000   0.2000000  -0.2000000), wk =   0.1280000
        k(    3) = (  -0.4000000   0.4000000  -0.4000000), wk =   0.1280000
        k(    4) = (   0.0000000   0.4000000   0.0000000), wk =   0.0960000
        k(    5) = (  -0.2000000   0.6000000  -0.2000000), wk =   0.3840000
        k(    6) = (   0.6000000  -0.2000000   0.6000000), wk =   0.3840000
        k(    7) = (   0.4000000   0.0000000   0.4000000), wk =   0.1920000
        k(    8) = (   0.0000000   0.8000000   0.0000000), wk =   0.0960000
        k(    9) = (   0.8000000   0.0000000   0.8000000), wk =   0.1920000
        k(   10) = (   0.6000000  -0.2000000   1.0000000), wk =   0.3840000

     Dense  grid:     4015 G-vectors     FFT dimensions: (  24,  24,  24)

     Estimated max dynamical RAM per process >       3.09Mb

     Initial potential from superposition of free atoms

     starting charge    7.99901, renormalised to    8.00000
     Starting wfc are    8 randomized atomic wfcs

     total cpu time spent up to now is        0.1 secs

     per-process dynamical memory:     6.4 Mb

     Self-consistent Calculation

     iteration #  1     ecut=    23.42 Ry     beta=0.70
     Davidson diagonalization with overlap
     ethr =  1.00E-02,  avg # of iterations =  2.0

     Threshold (ethr) on eigenvalues was too large:
     Diagonalizing with lowered threshold

     Davidson diagonalization with overlap
     ethr =  8.17E-04,  avg # of iterations =  1.0

     total cpu time spent up to now is        0.2 secs

     total energy              =     -15.84226968 Ry
     Harris-Foulkes estimate   =     -15.86422572 Ry
     estimated scf accuracy    <       0.06418599 Ry

     iteration #  2     ecut=    23.42 Ry     beta=0.70
     Davidson diagonalization with overlap
     ethr =  8.02E-04,  avg # of iterations =  1.0

     total cpu time spent up to now is        0.3 secs

     total energy              =     -15.84542272 Ry
     Harris-Foulkes estimate   =     -15.84574260 Ry
     estimated scf accuracy    <       0.00225525 Ry

     iteration #  3     ecut=    23.42 Ry     beta=0.70
     Davidson diagonalization with overlap
     ethr =  2.82E-05,  avg # of iterations =  2.0

     total cpu time spent up to now is        0.3 secs

     total energy              =     -15.84580921 Ry
     Harris-Foulkes estimate   =     -15.84583874 Ry
     estimated scf accuracy    <       0.00007120 Ry

     iteration #  4     ecut=    23.42 Ry     beta=0.70
     Davidson diagonalization with overlap
     ethr =  8.90E-07,  avg # of iterations =  2.1

     total cpu time spent up to now is        0.4 secs

     total energy              =     -15.84582643 Ry
     Harris-Foulkes estimate   =     -15.84582967 Ry
     estimated scf accuracy    <       0.00000680 Ry

     iteration #  5     ecut=    23.42 Ry     beta=0.70
     Davidson diagonalization with overlap
     ethr =  8.50E-08,  avg # of iterations =  2.2

     total cpu time spent up to now is        0.4 secs

     total energy              =     -15.84582750 Ry
     Harris-Foulkes estimate   =     -15.84582755 Ry
     estimated scf accuracy    <       0.00000010 Ry

     iteration #  6     ecut=    23.42 Ry     beta=0.70
     Davidson diagonalization with overlap
     ethr =  1.28E-09,  avg # of iterations =  2.4

     total cpu time spent up to now is        0.5 secs

     End of self-consistent calculation

          k = 0.0000 0.0000 0.0000 (   531 PWs)   bands (ev):

    -5.8085   6.2523   6.2523   6.2523

          k =-0.2000 0.2000-0.2000 (   516 PWs)   bands (ev):

    -5.2819   3.2246   5.6627   5.6627

          k =-0.4000 0.4000-0.4000 (   498 PWs)   bands (ev):

    -3.8859  -0.0944   5.1093   5.1093

          k = 0.0000 0.4000 0.0000 (   520 PWs)   bands (ev):

    -5.1013   3.6585   4.7318   4.7318

          k =-0.2000 0.6000-0.2000 (   509 PWs)   bands (ev):

    -3.9371   0.9218   3.5797   4.2162

          k = 0.6000-0.2000 0.6000 (   513 PWs)   bands (ev):

    -3.0227  -0.5137   2.7519   4.5063

          k = 0.4000 0.0000 0.4000 (   509 PWs)   bands (ev):

    -4.4344   1.7705   3.1757   5.3944

          k = 0.0000 0.8000 0.0000 (   496 PWs)   bands (ev):

    -3.0493   0.0730   3.5031   3.5031

          k = 0.8000 0.0000 0.8000 (   494 PWs)   bands (ev):

    -1.8086  -1.2119   2.0761   3.6251

          k = 0.6000-0.2000 1.0000 (   503 PWs)   bands (ev):

    -2.5930  -0.3149   2.1673   3.1807

     highest occupied level (ev):     6.2523

!    total energy              =     -15.84582753 Ry
     Harris-Foulkes estimate   =     -15.84582753 Ry
     estimated scf accuracy    <          4.2E-10 Ry

     The total energy is the sum of the following terms:

     one-electron contribution =       4.78690765 Ry
     hartree contribution      =       1.08757067 Ry
     xc contribution           =      -4.82054725 Ry
     ewald contribution        =     -16.89975859 Ry

     convergence has been achieved in   6 iterations

     Forces acting on atoms (Ry/au):

     atom    1 type  1   force =    -0.00000000   -0.00000000    0.00000000
     atom    2 type  1   force =     0.00000000    0.00000000    0.00000000

     Total force =     0.000000     Total SCF correction =     0.000000


     entering subroutine stress ...

          total   stress  (Ry/bohr**3)                   (kbar)     P=    1.10
   0.00000750   0.00000000  -0.00000000          1.10      0.00     -0.00
   0.00000000   0.00000750   0.00000000          0.00      1.10      0.00
  -0.00000000   0.00000000   0.00000750         -0.00      0.00      1.10


     Writing output data file silicon.save

     init_run     :      0.10s CPU      0.10s WALL (       1 calls)
     electrons    :      0.33s CPU      0.33s WALL (       1 calls)
     forces       :      0.01s CPU      0.01s WALL (       1 calls)
     stress       :      0.02s CPU      0.02s WALL (       1 calls)

     Called by init_run:
     wfcinit      :      0.05s CPU      0.05s WALL (       1 calls)
     potinit      :      0.00s CPU      0.00s WALL (       1 calls)

     Called by electrons:
     c_bands      :      0.25s CPU      0.26s WALL (       7 calls)
     sum_band     :      0.06s CPU      0.06s WALL (       7 calls)
     v_of_rho     :      0.01s CPU      0.01s WALL (       7 calls)
     mix_rho      :      0.00s CPU      0.00s WALL (       7 calls)

     Called by c_bands:
     init_us_2    :      0.01s CPU      0.01s WALL (     170 calls)
     cegterg      :      0.24s CPU      0.25s WALL (      70 calls)

     Called by sum_band:

     Called by *egterg:
     h_psi        :      0.26s CPU      0.26s WALL (     207 calls)
     g_psi        :      0.00s CPU      0.00s WALL (     127 calls)
     cdiaghg      :      0.01s CPU      0.01s WALL (     187 calls)

     Called by h_psi:
     h_psi:pot    :      0.26s CPU      0.26s WALL (     207 calls)
     h_psi:calbec :      0.00s CPU      0.01s WALL (     207 calls)
     vloc_psi     :      0.26s CPU      0.24s WALL (     207 calls)
     add_vuspsi   :      0.00s CPU      0.01s WALL (     207 calls)

     General routines
     calbec       :      0.00s CPU      0.01s WALL (     257 calls)
     fft          :      0.01s CPU      0.02s WALL (      34 calls)
     fftw         :      0.26s CPU      0.25s WALL (    1936 calls)
     davcio       :      0.00s CPU      0.00s WALL (      10 calls)

     Parallel routines
     fft_scatter  :      0.02s CPU      0.02s WALL (    1970 calls)

     PWSCF        :     0.50s CPU         0.52s WALL


   This run was terminated on:  12:52: 9  22Jun2018            

=------------------------------------------------------------------------------=
   JOB DONE.
=------------------------------------------------------------------------------=
