
     Program PWSCF v.6.0 (svn rev. 13079) starts on 16Apr2018 at 16: 9:57 

     This program is part of the open-source Quantum ESPRESSO suite
     for quantum simulation of materials; please cite
         "P. Giannozzi et al., J. Phys.:Condens. Matter 21 395502 (2009);
          URL http://www.quantum-espresso.org", 
     in publications or presentations arising from this work. More details at
     http://www.quantum-espresso.org/quote

     Parallel version (MPI), running on     1 processors
     Waiting for input...
     Reading input from standard input
     Message from routine read_cards :
     DEPRECATED: no units specified in ATOMIC_POSITIONS card
     Message from routine read_cards :
     ATOMIC_POSITIONS: units set to alat

     Current dimensions of program PWSCF are:
     Max number of different atomic species (ntypx) = 10
     Max number of k-points (npk) =  40000
     Max angular momentum in pseudopotentials (lmaxx) =  3

     Subspace diagonalization in iterative solution of the eigenvalue problem:
     a serial algorithm will be used


     G-vector sticks info
     --------------------
     sticks:   dense  smooth     PW     G-vecs:    dense   smooth      PW
     Sum         121     121     55                  869      869     229



     bravais-lattice index     =            2
     lattice parameter (alat)  =       7.5000  a.u.
     unit-cell volume          =     105.4688 (a.u.)^3
     number of atoms/cell      =            1
     number of atomic types    =            1
     number of electrons       =         3.00
     number of Kohn-Sham states=            6
     kinetic-energy cutoff     =      15.0000  Ry
     charge density cutoff     =      60.0000  Ry
     convergence threshold     =      1.0E-06
     mixing beta               =       0.7000
     number of iterations used =            8  plain     mixing
     Exchange-correlation      =  SLA  PZ   NOGX NOGC ( 1  1  0  0 0 0)

     celldm(1)=   7.500000  celldm(2)=   0.000000  celldm(3)=   0.000000
     celldm(4)=   0.000000  celldm(5)=   0.000000  celldm(6)=   0.000000

     crystal axes: (cart. coord. in units of alat)
               a(1) = (  -0.500000   0.000000   0.500000 )  
               a(2) = (   0.000000   0.500000   0.500000 )  
               a(3) = (  -0.500000   0.500000   0.000000 )  

     reciprocal axes: (cart. coord. in units 2 pi/alat)
               b(1) = ( -1.000000 -1.000000  1.000000 )  
               b(2) = (  1.000000  1.000000  1.000000 )  
               b(3) = ( -1.000000  1.000000 -1.000000 )  


     PseudoPot. # 1 for Al read from file:
     ../PP/Al.pz-vbc.UPF
     MD5 check sum: f06ceae8da0fe5c02c98e3688433298c
     Pseudo is Norm-conserving, Zval =  3.0
     Generated by new atomic code, or converted to UPF format
     Using radial grid of  171 points,  2 beta functions with: 
                l(1) =   0
                l(2) =   1

     atomic species   valence    mass     pseudopotential
        Al             3.00    26.98000     Al( 1.00)

     48 Sym. Ops., with inversion, found



   Cartesian axes

     site n.     atom                  positions (alat units)
         1           Al  tau(   1) = (   0.0000000   0.0000000   0.0000000  )

     number of k points=    47  Marzari-Vanderbilt smearing, width (Ry)=  0.0500
                       cart. coord. in units 2pi/alat
        k(    1) = (   0.0000000   0.0000000   0.0000000), wk =   0.0020000
        k(    2) = (  -0.1000000   0.1000000  -0.1000000), wk =   0.0160000
        k(    3) = (  -0.2000000   0.2000000  -0.2000000), wk =   0.0160000
        k(    4) = (  -0.3000000   0.3000000  -0.3000000), wk =   0.0160000
        k(    5) = (  -0.4000000   0.4000000  -0.4000000), wk =   0.0160000
        k(    6) = (   0.5000000  -0.5000000   0.5000000), wk =   0.0080000
        k(    7) = (   0.0000000   0.2000000   0.0000000), wk =   0.0120000
        k(    8) = (  -0.1000000   0.3000000  -0.1000000), wk =   0.0480000
        k(    9) = (  -0.2000000   0.4000000  -0.2000000), wk =   0.0480000
        k(   10) = (  -0.3000000   0.5000000  -0.3000000), wk =   0.0480000
        k(   11) = (   0.6000000  -0.4000000   0.6000000), wk =   0.0480000
        k(   12) = (   0.5000000  -0.3000000   0.5000000), wk =   0.0480000
        k(   13) = (   0.4000000  -0.2000000   0.4000000), wk =   0.0480000
        k(   14) = (   0.3000000  -0.1000000   0.3000000), wk =   0.0480000
        k(   15) = (   0.2000000   0.0000000   0.2000000), wk =   0.0240000
        k(   16) = (   0.0000000   0.4000000   0.0000000), wk =   0.0120000
        k(   17) = (  -0.1000000   0.5000000  -0.1000000), wk =   0.0480000
        k(   18) = (  -0.2000000   0.6000000  -0.2000000), wk =   0.0480000
        k(   19) = (   0.7000000  -0.3000000   0.7000000), wk =   0.0480000
        k(   20) = (   0.6000000  -0.2000000   0.6000000), wk =   0.0480000
        k(   21) = (   0.5000000  -0.1000000   0.5000000), wk =   0.0480000
        k(   22) = (   0.4000000   0.0000000   0.4000000), wk =   0.0240000
        k(   23) = (   0.0000000   0.6000000   0.0000000), wk =   0.0120000
        k(   24) = (  -0.1000000   0.7000000  -0.1000000), wk =   0.0480000
        k(   25) = (   0.8000000  -0.2000000   0.8000000), wk =   0.0480000
        k(   26) = (   0.7000000  -0.1000000   0.7000000), wk =   0.0480000
        k(   27) = (   0.6000000  -0.0000000   0.6000000), wk =   0.0240000
        k(   28) = (   0.0000000   0.8000000   0.0000000), wk =   0.0120000
        k(   29) = (   0.9000000  -0.1000000   0.9000000), wk =   0.0480000
        k(   30) = (   0.8000000   0.0000000   0.8000000), wk =   0.0240000
        k(   31) = (   0.0000000  -1.0000000   0.0000000), wk =   0.0060000
        k(   32) = (  -0.2000000   0.4000000   0.0000000), wk =   0.0480000
        k(   33) = (  -0.3000000   0.5000000  -0.1000000), wk =   0.0960000
        k(   34) = (   0.6000000  -0.4000000   0.8000000), wk =   0.0960000
        k(   35) = (   0.5000000  -0.3000000   0.7000000), wk =   0.0480000
        k(   36) = (  -0.2000000   0.6000000   0.0000000), wk =   0.0480000
        k(   37) = (   0.7000000  -0.3000000   0.9000000), wk =   0.0960000
        k(   38) = (   0.6000000  -0.2000000   0.8000000), wk =   0.0960000
        k(   39) = (   0.5000000  -0.1000000   0.7000000), wk =   0.0960000
        k(   40) = (   0.4000000   0.0000000   0.6000000), wk =   0.0480000
        k(   41) = (   0.8000000  -0.2000000   1.0000000), wk =   0.0480000
        k(   42) = (   0.7000000  -0.1000000   0.9000000), wk =   0.0960000
        k(   43) = (   0.6000000   0.0000000   0.8000000), wk =   0.0480000
        k(   44) = (  -0.2000000  -1.0000000   0.0000000), wk =   0.0240000
        k(   45) = (   0.6000000  -0.2000000   1.0000000), wk =   0.0480000
        k(   46) = (   0.5000000  -0.1000000   0.9000000), wk =   0.0480000
        k(   47) = (  -0.4000000  -1.0000000   0.0000000), wk =   0.0240000

     Dense  grid:      869 G-vectors     FFT dimensions: (  15,  15,  15)

     Estimated max dynamical RAM per process >       1.09Mb

     Initial potential from superposition of free atoms

     starting charge    2.99794, renormalised to    3.00000
     Starting wfc are    4 randomized atomic wfcs +    2 random wfc

     total cpu time spent up to now is        0.1 secs

     per-process dynamical memory:     4.9 Mb

     Self-consistent Calculation

     iteration #  1     ecut=    15.00 Ry     beta=0.70
     Davidson diagonalization with overlap
     ethr =  1.00E-02,  avg # of iterations =  4.3

     Threshold (ethr) on eigenvalues was too large:
     Diagonalizing with lowered threshold

     Davidson diagonalization with overlap
     ethr =  1.95E-04,  avg # of iterations =  1.4

     total cpu time spent up to now is        0.2 secs

     total energy              =      -4.18703236 Ry
     Harris-Foulkes estimate   =      -4.18785102 Ry
     estimated scf accuracy    <       0.00584997 Ry

     iteration #  2     ecut=    15.00 Ry     beta=0.70
     Davidson diagonalization with overlap
     ethr =  1.95E-04,  avg # of iterations =  1.0

     total cpu time spent up to now is        0.3 secs

     total energy              =      -4.18702869 Ry
     Harris-Foulkes estimate   =      -4.18705827 Ry
     estimated scf accuracy    <       0.00045184 Ry

     iteration #  3     ecut=    15.00 Ry     beta=0.70
     Davidson diagonalization with overlap
     ethr =  1.51E-05,  avg # of iterations =  1.5

     total cpu time spent up to now is        0.3 secs

     End of self-consistent calculation

          k = 0.0000 0.0000 0.0000 (   113 PWs)   bands (ev):

    -3.1916  21.1772  21.1779  22.5540  22.5540  22.5540

          k =-0.1000 0.1000-0.1000 (   113 PWs)   bands (ev):

    -2.9067  17.7701  20.4025  20.4026  23.3009  23.7469

          k =-0.2000 0.2000-0.2000 (   107 PWs)   bands (ev):

    -2.0538  13.7130  19.6272  19.6273  23.0605  24.2357

          k =-0.3000 0.3000-0.3000 (    98 PWs)   bands (ev):

    -0.6508   9.9625  19.2744  19.2744  22.4583  22.4584

          k =-0.4000 0.4000-0.4000 (   105 PWs)   bands (ev):

     1.2750   6.6136  19.3710  19.3710  20.9647  20.9648

          k = 0.5000-0.5000 0.5000 (   108 PWs)   bands (ev):

     3.5953   3.8180  19.8971  19.8971  19.9669  19.9673

          k = 0.0000 0.2000 0.0000 (   109 PWs)   bands (ev):

    -2.8103  18.9724  18.9724  19.2296  21.8277  24.6165

          k =-0.1000 0.3000-0.1000 (   106 PWs)   bands (ev):

    -2.1480  15.1963  17.9847  19.4139  21.8706  22.7202

          k =-0.2000 0.4000-0.2000 (   105 PWs)   bands (ev):

    -0.9313  11.3738  17.4576  19.0852  19.8351  24.7162

          k =-0.3000 0.5000-0.3000 (   106 PWs)   bands (ev):

     0.8190   7.9050  17.3923  18.0925  19.1302  23.7482

          k = 0.6000-0.4000 0.6000 (   101 PWs)   bands (ev):

     3.0749   4.8680  16.8898  17.7960  19.5727  22.5756

          k = 0.5000-0.3000 0.5000 (   103 PWs)   bands (ev):

     2.2696   5.8281  16.1600  18.6643  20.4976  21.8580

          k = 0.4000-0.2000 0.4000 (   103 PWs)   bands (ev):

     0.1782   9.0112  15.9214  19.9938  21.6164  21.8909

          k = 0.3000-0.1000 0.3000 (   104 PWs)   bands (ev):

    -1.3963  12.5812  16.1927  21.5421  22.0179  23.6951

          k = 0.2000 0.0000 0.2000 (   105 PWs)   bands (ev):

    -2.4304  16.1135  17.2988  21.9187  22.8606  24.0946

          k = 0.0000 0.4000 0.0000 (   101 PWs)   bands (ev):

    -1.6749  16.7866  16.8284  16.8284  19.2410  20.3610

          k =-0.1000 0.5000-0.1000 (   100 PWs)   bands (ev):

    -0.6496  13.1903  16.1353  16.8208  17.5809  21.0674

          k =-0.2000 0.6000-0.2000 (   105 PWs)   bands (ev):

     0.9109   9.6685  14.9573  15.9066  17.6089  23.5853

          k = 0.7000-0.3000 0.7000 (   103 PWs)   bands (ev):

     2.9848   6.5187  13.5585  16.1472  17.9516  25.7102

          k = 0.6000-0.2000 0.6000 (   101 PWs)   bands (ev):

     3.7830   5.5589  12.6615  16.8569  18.7648  24.8478

          k = 0.5000-0.1000 0.5000 (   102 PWs)   bands (ev):

     1.5483   8.5135  12.3215  18.0332  20.0525  24.4434

          k = 0.4000 0.0000 0.4000 (   101 PWs)   bands (ev):

    -0.1888  11.3793  13.0084  19.6773  21.7696  24.1274

          k = 0.0000 0.6000 0.0000 (   105 PWs)   bands (ev):

     0.1788  14.2785  14.9585  15.2832  15.2832  18.9634

          k =-0.1000 0.7000-0.1000 (   105 PWs)   bands (ev):

     1.5469  11.7490  12.2736  14.8996  16.1691  19.9044

          k = 0.8000-0.2000 0.8000 (   104 PWs)   bands (ev):

     3.4221   8.6172  10.6335  14.9819  16.5727  22.7467

          k = 0.7000-0.1000 0.7000 (   101 PWs)   bands (ev):

     5.6156   5.9428   9.5847  15.5300  17.2810  26.2010

          k = 0.6000-0.0000 0.6000 (   101 PWs)   bands (ev):

     3.4328   8.0045   9.6035  16.5467  18.4491  27.8163

          k = 0.0000 0.8000 0.0000 (   104 PWs)   bands (ev):

     2.7089   9.8874  13.8481  14.3618  14.3618  18.0248

          k = 0.9000-0.1000 0.9000 (   104 PWs)   bands (ev):

     4.3558   8.1184  11.1807  14.2872  15.4642  19.2921

          k = 0.8000 0.0000 0.8000 (   102 PWs)   bands (ev):

     5.9957   7.2958   8.4227  14.6754  16.2192  22.4577

          k = 0.0000-1.0000 0.0000 (   108 PWs)   bands (ev):

     5.3302   6.6437  13.4734  14.0547  14.0547  17.6948

          k =-0.2000 0.4000 0.0000 (   104 PWs)   bands (ev):

    -1.3032  13.7511  15.1763  19.5474  20.5024  22.3649

          k =-0.3000 0.5000-0.1000 (   102 PWs)   bands (ev):

     0.0871  10.5534  14.2751  17.5372  20.8496  23.9206

          k = 0.6000-0.4000 0.8000 (   105 PWs)   bands (ev):

     1.9985   7.2880  14.2821  16.0053  21.0484  22.7928

          k = 0.5000-0.3000 0.7000 (   104 PWs)   bands (ev):

     4.2720   4.5547  14.6181  15.1696  21.4547  21.9463

          k =-0.2000 0.6000 0.0000 (   104 PWs)   bands (ev):

     0.5467  12.0550  13.4857  14.7608  18.8764  21.0875

          k = 0.7000-0.3000 0.9000 (   103 PWs)   bands (ev):

     2.2688   9.1824  12.5907  13.3161  19.6196  23.2720

          k = 0.6000-0.2000 0.8000 (   103 PWs)   bands (ev):

     4.4744   6.2534  11.6004  13.4200  20.1874  24.8818

          k = 0.5000-0.1000 0.7000 (   103 PWs)   bands (ev):

     3.6951   7.1410  10.9441  14.2864  21.1289  24.1836

          k = 0.4000 0.0000 0.6000 (   104 PWs)   bands (ev):

     1.6379   9.6873  11.3181  15.6734  22.4528  23.2814

          k = 0.8000-0.2000 1.0000 (   102 PWs)   bands (ev):

     3.0677  10.1936  11.0368  12.7011  17.8743  20.2242

          k = 0.7000-0.1000 0.9000 (   105 PWs)   bands (ev):

     5.0486   8.3676   8.9796  12.3777  18.9672  22.7361

          k = 0.6000 0.0000 0.8000 (   105 PWs)   bands (ev):

     5.8607   6.9973   8.5367  13.0569  19.8752  26.1703

          k =-0.2000-1.0000 0.0000 (   104 PWs)   bands (ev):

     5.6620   7.0056  10.6963  12.3435  17.5368  19.9246

          k = 0.6000-0.2000 1.0000 (   105 PWs)   bands (ev):

     4.1280   8.6742  10.1347  11.5297  22.3173  23.6614

          k = 0.5000-0.1000 0.9000 (   104 PWs)   bands (ev):

     6.2834   6.5869   9.8559  10.7687  23.2813  23.8371

          k =-0.4000-1.0000 0.0000 (   104 PWs)   bands (ev):

     6.6626   7.9912   8.3370  10.1780  21.9868  23.6059

     the Fermi energy is     8.3970 ev

!    total energy              =      -4.18703168 Ry
     Harris-Foulkes estimate   =      -4.18703160 Ry
     estimated scf accuracy    <       0.00000033 Ry

     The total energy is the sum of the following terms:

     one-electron contribution =       2.94113135 Ry
     hartree contribution      =       0.00972060 Ry
     xc contribution           =      -1.63454394 Ry
     ewald contribution        =      -5.50183453 Ry
     smearing contrib. (-TS)   =      -0.00150516 Ry

     convergence has been achieved in   3 iterations

     Forces acting on atoms (Ry/au):

     atom    1 type  1   force =     0.00000000    0.00000000    0.00000000

     Total force =     0.000000     Total SCF correction =     0.000000


     entering subroutine stress ...

          total   stress  (Ry/bohr**3)                   (kbar)     P=  -15.53
  -0.00010556  -0.00000000  -0.00000000        -15.53     -0.00     -0.00
  -0.00000000  -0.00010556   0.00000000         -0.00    -15.53      0.00
  -0.00000000   0.00000000  -0.00010556         -0.00      0.00    -15.53


     Writing output data file aluminium.save

     init_run     :      0.04s CPU      0.04s WALL (       1 calls)
     electrons    :      0.25s CPU      0.26s WALL (       1 calls)
     forces       :      0.00s CPU      0.00s WALL (       1 calls)
     stress       :      0.02s CPU      0.01s WALL (       1 calls)

     Called by init_run:
     wfcinit      :      0.03s CPU      0.03s WALL (       1 calls)
     potinit      :      0.00s CPU      0.00s WALL (       1 calls)

     Called by electrons:
     c_bands      :      0.22s CPU      0.23s WALL (       4 calls)
     sum_band     :      0.02s CPU      0.03s WALL (       4 calls)
     v_of_rho     :      0.00s CPU      0.00s WALL (       4 calls)
     mix_rho      :      0.00s CPU      0.00s WALL (       4 calls)

     Called by c_bands:
     init_us_2    :      0.01s CPU      0.01s WALL (     517 calls)
     cegterg      :      0.21s CPU      0.23s WALL (     188 calls)

     Called by sum_band:

     Called by *egterg:
     h_psi        :      0.15s CPU      0.17s WALL (     619 calls)
     g_psi        :      0.00s CPU      0.00s WALL (     384 calls)
     cdiaghg      :      0.04s CPU      0.04s WALL (     525 calls)

     Called by h_psi:
     h_psi:pot    :      0.14s CPU      0.17s WALL (     619 calls)
     h_psi:calbec :      0.00s CPU      0.00s WALL (     619 calls)
     vloc_psi     :      0.14s CPU      0.16s WALL (     619 calls)
     add_vuspsi   :      0.00s CPU      0.00s WALL (     619 calls)

     General routines
     calbec       :      0.00s CPU      0.00s WALL (     854 calls)
     fft          :      0.00s CPU      0.00s WALL (      22 calls)
     fftw         :      0.15s CPU      0.15s WALL (    7430 calls)
     davcio       :      0.00s CPU      0.00s WALL (      47 calls)

     Parallel routines
     fft_scatter  :      0.02s CPU      0.02s WALL (    7452 calls)

     PWSCF        :     0.38s CPU         0.39s WALL


   This run was terminated on:  16: 9:58  16Apr2018            

=------------------------------------------------------------------------------=
   JOB DONE.
=------------------------------------------------------------------------------=
