
     Program PWSCF v.6.0 (svn rev. 13079) starts on 16Apr2018 at 16: 0:22 

     This program is part of the open-source Quantum ESPRESSO suite
     for quantum simulation of materials; please cite
         "P. Giannozzi et al., J. Phys.:Condens. Matter 21 395502 (2009);
          URL http://www.quantum-espresso.org", 
     in publications or presentations arising from this work. More details at
     http://www.quantum-espresso.org/quote

     Parallel version (MPI), running on     1 processors
     Waiting for input...
     Reading input from standard input

     Current dimensions of program PWSCF are:
     Max number of different atomic species (ntypx) = 10
     Max number of k-points (npk) =  40000
     Max angular momentum in pseudopotentials (lmaxx) =  3

     Subspace diagonalization in iterative solution of the eigenvalue problem:
     a serial algorithm will be used


     G-vector sticks info
     --------------------
     sticks:   dense  smooth     PW     G-vecs:    dense   smooth      PW
     Sum         235     235     85                 2277     2277     531



     bravais-lattice index     =            2
     lattice parameter (alat)  =      10.2000  a.u.
     unit-cell volume          =     265.3020 (a.u.)^3
     number of atoms/cell      =            2
     number of atomic types    =            1
     number of electrons       =         8.00
     number of Kohn-Sham states=            4
     kinetic-energy cutoff     =      16.0430  Ry
     charge density cutoff     =      64.1720  Ry
     convergence threshold     =      1.0E-08
     mixing beta               =       0.7000
     number of iterations used =            8  plain     mixing
     Exchange-correlation      =  SLA  PZ   NOGX NOGC ( 1  1  0  0 0 0)

     celldm(1)=  10.200000  celldm(2)=   0.000000  celldm(3)=   0.000000
     celldm(4)=   0.000000  celldm(5)=   0.000000  celldm(6)=   0.000000

     crystal axes: (cart. coord. in units of alat)
               a(1) = (  -0.500000   0.000000   0.500000 )  
               a(2) = (   0.000000   0.500000   0.500000 )  
               a(3) = (  -0.500000   0.500000   0.000000 )  

     reciprocal axes: (cart. coord. in units 2 pi/alat)
               b(1) = ( -1.000000 -1.000000  1.000000 )  
               b(2) = (  1.000000  1.000000  1.000000 )  
               b(3) = ( -1.000000  1.000000 -1.000000 )  


     PseudoPot. # 1 for Si read from file:
     ../../../PP/Si.pz-vbc.UPF
     MD5 check sum: 6dfa03ddd5817404712e03e4d12deb78
     Pseudo is Norm-conserving, Zval =  4.0
     Generated by new atomic code, or converted to UPF format
     Using radial grid of  431 points,  2 beta functions with: 
                l(1) =   0
                l(2) =   1

     atomic species   valence    mass     pseudopotential
        Si             4.00    28.08600     Si( 1.00)

     48 Sym. Ops., with inversion, found (24 have fractional translation)



   Cartesian axes

     site n.     atom                  positions (alat units)
         1           Si  tau(   1) = (   0.0000000   0.0000000   0.0000000  )
         2           Si  tau(   2) = (  -0.2500000   0.2500000   0.2500000  )

     number of k points=    10
                       cart. coord. in units 2pi/alat
        k(    1) = (   0.0000000   0.0000000   0.0000000), wk =   0.0160000
        k(    2) = (  -0.2000000   0.2000000  -0.2000000), wk =   0.1280000
        k(    3) = (  -0.4000000   0.4000000  -0.4000000), wk =   0.1280000
        k(    4) = (   0.0000000   0.4000000   0.0000000), wk =   0.0960000
        k(    5) = (  -0.2000000   0.6000000  -0.2000000), wk =   0.3840000
        k(    6) = (   0.6000000  -0.2000000   0.6000000), wk =   0.3840000
        k(    7) = (   0.4000000   0.0000000   0.4000000), wk =   0.1920000
        k(    8) = (   0.0000000   0.8000000   0.0000000), wk =   0.0960000
        k(    9) = (   0.8000000   0.0000000   0.8000000), wk =   0.1920000
        k(   10) = (   0.6000000  -0.2000000   1.0000000), wk =   0.3840000

     Dense  grid:     2277 G-vectors     FFT dimensions: (  20,  20,  20)

     Estimated max dynamical RAM per process >       1.77Mb

     Initial potential from superposition of free atoms

     starting charge    7.99901, renormalised to    8.00000
     Starting wfc are    8 randomized atomic wfcs

     total cpu time spent up to now is        0.0 secs

     per-process dynamical memory:     5.4 Mb

     Self-consistent Calculation

     iteration #  1     ecut=    16.04 Ry     beta=0.70
     Davidson diagonalization with overlap
     ethr =  1.00E-02,  avg # of iterations =  2.0

     Threshold (ethr) on eigenvalues was too large:
     Diagonalizing with lowered threshold

     Davidson diagonalization with overlap
     ethr =  7.98E-04,  avg # of iterations =  1.0

     total cpu time spent up to now is        0.1 secs

     total energy              =     -15.83092640 Ry
     Harris-Foulkes estimate   =     -15.85273963 Ry
     estimated scf accuracy    <       0.06342820 Ry

     iteration #  2     ecut=    16.04 Ry     beta=0.70
     Davidson diagonalization with overlap
     ethr =  7.93E-04,  avg # of iterations =  1.0

     total cpu time spent up to now is        0.1 secs

     total energy              =     -15.83406146 Ry
     Harris-Foulkes estimate   =     -15.83439121 Ry
     estimated scf accuracy    <       0.00223442 Ry

     iteration #  3     ecut=    16.04 Ry     beta=0.70
     Davidson diagonalization with overlap
     ethr =  2.79E-05,  avg # of iterations =  2.0

     total cpu time spent up to now is        0.1 secs

     total energy              =     -15.83445780 Ry
     Harris-Foulkes estimate   =     -15.83448645 Ry
     estimated scf accuracy    <       0.00006779 Ry

     iteration #  4     ecut=    16.04 Ry     beta=0.70
     Davidson diagonalization with overlap
     ethr =  8.47E-07,  avg # of iterations =  2.2

     total cpu time spent up to now is        0.1 secs

     total energy              =     -15.83447291 Ry
     Harris-Foulkes estimate   =     -15.83447557 Ry
     estimated scf accuracy    <       0.00000592 Ry

     iteration #  5     ecut=    16.04 Ry     beta=0.70
     Davidson diagonalization with overlap
     ethr =  7.40E-08,  avg # of iterations =  2.1

     total cpu time spent up to now is        0.1 secs

     total energy              =     -15.83447383 Ry
     Harris-Foulkes estimate   =     -15.83447386 Ry
     estimated scf accuracy    <       0.00000006 Ry

     iteration #  6     ecut=    16.04 Ry     beta=0.70
     Davidson diagonalization with overlap
     ethr =  7.15E-10,  avg # of iterations =  2.6

     total cpu time spent up to now is        0.2 secs

     End of self-consistent calculation

          k = 0.0000 0.0000 0.0000 (   283 PWs)   bands (ev):

    -5.7910   6.2759   6.2759   6.2759

          k =-0.2000 0.2000-0.2000 (   295 PWs)   bands (ev):

    -5.2622   3.2397   5.6790   5.6790

          k =-0.4000 0.4000-0.4000 (   281 PWs)   bands (ev):

    -3.8604  -0.0784   5.1208   5.1208

          k = 0.0000 0.4000 0.0000 (   295 PWs)   bands (ev):

    -5.0851   3.6838   4.7433   4.7433

          k =-0.2000 0.6000-0.2000 (   290 PWs)   bands (ev):

    -3.9179   0.9420   3.5923   4.2247

          k = 0.6000-0.2000 0.6000 (   283 PWs)   bands (ev):

    -2.9987  -0.4969   2.7636   4.5177

          k = 0.4000 0.0000 0.4000 (   295 PWs)   bands (ev):

    -4.4158   1.7883   3.1849   5.4082

          k = 0.0000 0.8000 0.0000 (   290 PWs)   bands (ev):

    -3.0306   0.0946   3.5114   3.5114

          k = 0.8000 0.0000 0.8000 (   280 PWs)   bands (ev):

    -1.7835  -1.1877   2.0856   3.6344

          k = 0.6000-0.2000 1.0000 (   283 PWs)   bands (ev):

    -2.5685  -0.2924   2.1770   3.1907

     highest occupied level (ev):     6.2759

!    total energy              =     -15.83447385 Ry
     Harris-Foulkes estimate   =     -15.83447386 Ry
     estimated scf accuracy    <          1.3E-09 Ry

     The total energy is the sum of the following terms:

     one-electron contribution =       4.79790202 Ry
     hartree contribution      =       1.08459981 Ry
     xc contribution           =      -4.81721711 Ry
     ewald contribution        =     -16.89975858 Ry

     convergence has been achieved in   6 iterations

     Forces acting on atoms (Ry/au):

     atom    1 type  1   force =     0.00000000    0.00000000    0.00000000
     atom    2 type  1   force =     0.00000000    0.00000000    0.00000000

     Total force =     0.000000     Total SCF correction =     0.000000


     entering subroutine stress ...

          total   stress  (Ry/bohr**3)                   (kbar)     P=  -14.66
  -0.00009966   0.00000000   0.00000000        -14.66      0.00      0.00
   0.00000000  -0.00009966  -0.00000000          0.00    -14.66     -0.00
   0.00000000  -0.00000000  -0.00009966          0.00     -0.00    -14.66


     Writing output data file silicon.save

     init_run     :      0.03s CPU      0.03s WALL (       1 calls)
     electrons    :      0.11s CPU      0.14s WALL (       1 calls)
     forces       :      0.01s CPU      0.01s WALL (       1 calls)
     stress       :      0.03s CPU      0.03s WALL (       1 calls)

     Called by init_run:
     wfcinit      :      0.01s CPU      0.01s WALL (       1 calls)
     potinit      :      0.00s CPU      0.00s WALL (       1 calls)

     Called by electrons:
     c_bands      :      0.08s CPU      0.08s WALL (       7 calls)
     sum_band     :      0.03s CPU      0.03s WALL (       7 calls)
     v_of_rho     :      0.00s CPU      0.00s WALL (       7 calls)
     mix_rho      :      0.00s CPU      0.00s WALL (       7 calls)

     Called by c_bands:
     init_us_2    :      0.01s CPU      0.01s WALL (     170 calls)
     cegterg      :      0.08s CPU      0.08s WALL (      70 calls)

     Called by sum_band:

     Called by *egterg:
     h_psi        :      0.06s CPU      0.07s WALL (     209 calls)
     g_psi        :      0.00s CPU      0.00s WALL (     129 calls)
     cdiaghg      :      0.01s CPU      0.01s WALL (     189 calls)

     Called by h_psi:
     h_psi:pot    :      0.06s CPU      0.07s WALL (     209 calls)
     h_psi:calbec :      0.00s CPU      0.00s WALL (     209 calls)
     vloc_psi     :      0.06s CPU      0.06s WALL (     209 calls)
     add_vuspsi   :      0.00s CPU      0.00s WALL (     209 calls)

     General routines
     calbec       :      0.01s CPU      0.00s WALL (     259 calls)
     fft          :      0.00s CPU      0.00s WALL (      34 calls)
     fftw         :      0.05s CPU      0.06s WALL (    1936 calls)
     davcio       :      0.00s CPU      0.14s WALL (      10 calls)

     Parallel routines
     fft_scatter  :      0.00s CPU      0.01s WALL (    1970 calls)

     PWSCF        :     0.26s CPU         0.50s WALL


   This run was terminated on:  16: 0:23  16Apr2018            

=------------------------------------------------------------------------------=
   JOB DONE.
=------------------------------------------------------------------------------=
